+ 0.5 0 2 cbr 500 ------- 0 0.0 4.0 0 0
- 0.5 0 2 cbr 500 ------- 0 0.0 4.0 0 0
+ 0.505 0 2 cbr 500 ------- 0 0.0 4.0 1 1
- 0.505 0 2 cbr 500 ------- 0 0.0 4.0 1 1
+ 0.51 0 2 cbr 500 ------- 0 0.0 4.0 2 2
- 0.51 0 2 cbr 500 ------- 0 0.0 4.0 2 2
r 0.514 0 2 cbr 500 ------- 0 0.0 4.0 0 0
+ 0.514 2 4 cbr 500 ------- 0 0.0 4.0 0 0
- 0.514 2 4 cbr 500 ------- 0 0.0 4.0 0 0
+ 0.515 0 2 cbr 500 ------- 0 0.0 4.0 3 3
- 0.515 0 2 cbr 500 ------- 0 0.0 4.0 3 3
r 0.519 0 2 cbr 500 ------- 0 0.0 4.0 1 1
+ 0.519 2 4 cbr 500 ------- 0 0.0 4.0 1 1
- 0.519 2 4 cbr 500 ------- 0 0.0 4.0 1 1
+ 0.52 0 2 cbr 500 ------- 0 0.0 4.0 4 4
- 0.52 0 2 cbr 500 ------- 0 0.0 4.0 4 4
r 0.524 0 2 cbr 500 ------- 0 0.0 4.0 2 2
+ 0.524 2 4 cbr 500 ------- 0 0.0 4.0 2 2
- 0.524 2 4 cbr 500 ------- 0 0.0 4.0 2 2
+ 0.525 0 2 cbr 500 ------- 0 0.0 4.0 5 5
- 0.525 0 2 cbr 500 ------- 0 0.0 4.0 5 5
r 0.528 2 4 cbr 500 ------- 0 0.0 4.0 0 0
r 0.529 0 2 cbr 500 ------- 0 0.0 4.0 3 3
+ 0.529 2 4 cbr 500 ------- 0 0.0 4.0 3 3
- 0.529 2 4 cbr 500 ------- 0 0.0 4.0 3 3
+ 0.53 0 2 cbr 500 ------- 0 0.0 4.0 6 6
- 0.53 0 2 cbr 500 ------- 0 0.0 4.0 6 6
r 0.533 2 4 cbr 500 ------- 0 0.0 4.0 1 1
r 0.534 0 2 cbr 500 ------- 0 0.0 4.0 4 4
+ 0.534 2 4 cbr 500 ------- 0 0.0 4.0 4 4
- 0.534 2 4 cbr 500 ------- 0 0.0 4.0 4 4
+ 0.535 0 2 cbr 500 ------- 0 0.0 4.0 7 7
- 0.535 0 2 cbr 500 ------- 0 0.0 4.0 7 7
r 0.538 2 4 cbr 500 ------- 0 0.0 4.0 2 2
r 0.539 0 2 cbr 500 ------- 0 0.0 4.0 5 5
+ 0.539 2 4 cbr 500 ------- 0 0.0 4.0 5 5
- 0.539 2 4 cbr 500 ------- 0 0.0 4.0 5 5
+ 0.54 0 2 cbr 500 ------- 0 0.0 4.0 8 8
- 0.54 0 2 cbr 500 ------- 0 0.0 4.0 8 8
r 0.543 2 4 cbr 500 ------- 0 0.0 4.0 3 3
r 0.544 0 2 cbr 500 ------- 0 0.0 4.0 6 6
+ 0.544 2 4 cbr 500 ------- 0 0.0 4.0 6 6
- 0.544 2 4 cbr 500 ------- 0 0.0 4.0 6 6
+ 0.545 0 2 cbr 500 ------- 0 0.0 4.0 9 9
- 0.545 0 2 cbr 500 ------- 0 0.0 4.0 9 9
r 0.548 2 4 cbr 500 ------- 0 0.0 4.0 4 4
r 0.549 0 2 cbr 500 ------- 0 0.0 4.0 7 7
+ 0.549 2 4 cbr 500 ------- 0 0.0 4.0 7 7
- 0.549 2 4 cbr 500 ------- 0 0.0 4.0 7 7
+ 0.55 0 2 cbr 500 ------- 0 0.0 4.0 10 10
- 0.55 0 2 cbr 500 ------- 0 0.0 4.0 10 10
r 0.553 2 4 cbr 500 ------- 0 0.0 4.0 5 5
r 0.554 0 2 cbr 500 ------- 0 0.0 4.0 8 8
+ 0.554 2 4 cbr 500 ------- 0 0.0 4.0 8 8
- 0.554 2 4 cbr 500 ------- 0 0.0 4.0 8 8
+ 0.555 0 2 cbr 500 ------- 0 0.0 4.0 11 11
- 0.555 0 2 cbr 500 ------- 0 0.0 4.0 11 11
r 0.558 2 4 cbr 500 ------- 0 0.0 4.0 6 6
r 0.559 0 2 cbr 500 ------- 0 0.0 4.0 9 9
+ 0.559 2 4 cbr 500 ------- 0 0.0 4.0 9 9
- 0.559 2 4 cbr 500 ------- 0 0.0 4.0 9 9
+ 0.56 0 2 cbr 500 ------- 0 0.0 4.0 12 12
- 0.56 0 2 cbr 500 ------- 0 0.0 4.0 12 12
r 0.563 2 4 cbr 500 ------- 0 0.0 4.0 7 7
r 0.564 0 2 cbr 500 ------- 0 0.0 4.0 10 10
+ 0.564 2 4 cbr 500 ------- 0 0.0 4.0 10 10
- 0.564 2 4 cbr 500 ------- 0 0.0 4.0 10 10
+ 0.565 0 2 cbr 500 ------- 0 0.0 4.0 13 13
- 0.565 0 2 cbr 500 ------- 0 0.0 4.0 13 13
r 0.568 2 4 cbr 500 ------- 0 0.0 4.0 8 8
r 0.569 0 2 cbr 500 ------- 0 0.0 4.0 11 11
+ 0.569 2 4 cbr 500 ------- 0 0.0 4.0 11 11
- 0.569 2 4 cbr 500 ------- 0 0.0 4.0 11 11
+ 0.57 0 2 cbr 500 ------- 0 0.0 4.0 14 14
- 0.57 0 2 cbr 500 ------- 0 0.0 4.0 14 14
r 0.573 2 4 cbr 500 ------- 0 0.0 4.0 9 9
r 0.574 0 2 cbr 500 ------- 0 0.0 4.0 12 12
+ 0.574 2 4 cbr 500 ------- 0 0.0 4.0 12 12
- 0.574 2 4 cbr 500 ------- 0 0.0 4.0 12 12
+ 0.575 0 2 cbr 500 ------- 0 0.0 4.0 15 15
- 0.575 0 2 cbr 500 ------- 0 0.0 4.0 15 15
r 0.578 2 4 cbr 500 ------- 0 0.0 4.0 10 10
r 0.579 0 2 cbr 500 ------- 0 0.0 4.0 13 13
+ 0.579 2 4 cbr 500 ------- 0 0.0 4.0 13 13
- 0.579 2 4 cbr 500 ------- 0 0.0 4.0 13 13
+ 0.58 0 2 cbr 500 ------- 0 0.0 4.0 16 16
- 0.58 0 2 cbr 500 ------- 0 0.0 4.0 16 16
r 0.583 2 4 cbr 500 ------- 0 0.0 4.0 11 11
r 0.584 0 2 cbr 500 ------- 0 0.0 4.0 14 14
+ 0.584 2 4 cbr 500 ------- 0 0.0 4.0 14 14
- 0.584 2 4 cbr 500 ------- 0 0.0 4.0 14 14
+ 0.585 0 2 cbr 500 ------- 0 0.0 4.0 17 17
- 0.585 0 2 cbr 500 ------- 0 0.0 4.0 17 17
r 0.588 2 4 cbr 500 ------- 0 0.0 4.0 12 12
r 0.589 0 2 cbr 500 ------- 0 0.0 4.0 15 15
+ 0.589 2 4 cbr 500 ------- 0 0.0 4.0 15 15
- 0.589 2 4 cbr 500 ------- 0 0.0 4.0 15 15
+ 0.59 0 2 cbr 500 ------- 0 0.0 4.0 18 18
- 0.59 0 2 cbr 500 ------- 0 0.0 4.0 18 18
r 0.593 2 4 cbr 500 ------- 0 0.0 4.0 13 13
r 0.594 0 2 cbr 500 ------- 0 0.0 4.0 16 16
+ 0.594 2 4 cbr 500 ------- 0 0.0 4.0 16 16
- 0.594 2 4 cbr 500 ------- 0 0.0 4.0 16 16
+ 0.595 0 2 cbr 500 ------- 0 0.0 4.0 19 19
- 0.595 0 2 cbr 500 ------- 0 0.0 4.0 19 19
r 0.598 2 4 cbr 500 ------- 0 0.0 4.0 14 14
r 0.599 0 2 cbr 500 ------- 0 0.0 4.0 17 17
+ 0.599 2 4 cbr 500 ------- 0 0.0 4.0 17 17
- 0.599 2 4 cbr 500 ------- 0 0.0 4.0 17 17
+ 0.6 0 2 cbr 500 ------- 0 0.0 4.0 20 20
- 0.6 0 2 cbr 500 ------- 0 0.0 4.0 20 20
r 0.603 2 4 cbr 500 ------- 0 0.0 4.0 15 15
r 0.604 0 2 cbr 500 ------- 0 0.0 4.0 18 18
+ 0.604 2 4 cbr 500 ------- 0 0.0 4.0 18 18
- 0.604 2 4 cbr 500 ------- 0 0.0 4.0 18 18
+ 0.605 0 2 cbr 500 ------- 0 0.0 4.0 21 21
- 0.605 0 2 cbr 500 ------- 0 0.0 4.0 21 21
r 0.608 2 4 cbr 500 ------- 0 0.0 4.0 16 16
r 0.609 0 2 cbr 500 ------- 0 0.0 4.0 19 19
+ 0.609 2 4 cbr 500 ------- 0 0.0 4.0 19 19
- 0.609 2 4 cbr 500 ------- 0 0.0 4.0 19 19
+ 0.61 0 2 cbr 500 ------- 0 0.0 4.0 22 22
- 0.61 0 2 cbr 500 ------- 0 0.0 4.0 22 22
r 0.613 2 4 cbr 500 ------- 0 0.0 4.0 17 17
r 0.614 0 2 cbr 500 ------- 0 0.0 4.0 20 20
+ 0.614 2 4 cbr 500 ------- 0 0.0 4.0 20 20
- 0.614 2 4 cbr 500 ------- 0 0.0 4.0 20 20
+ 0.615 0 2 cbr 500 ------- 0 0.0 4.0 23 23
- 0.615 0 2 cbr 500 ------- 0 0.0 4.0 23 23
r 0.618 2 4 cbr 500 ------- 0 0.0 4.0 18 18
r 0.619 0 2 cbr 500 ------- 0 0.0 4.0 21 21
+ 0.619 2 4 cbr 500 ------- 0 0.0 4.0 21 21
- 0.619 2 4 cbr 500 ------- 0 0.0 4.0 21 21
+ 0.62 0 2 cbr 500 ------- 0 0.0 4.0 24 24
- 0.62 0 2 cbr 500 ------- 0 0.0 4.0 24 24
r 0.623 2 4 cbr 500 ------- 0 0.0 4.0 19 19
r 0.624 0 2 cbr 500 ------- 0 0.0 4.0 22 22
+ 0.624 2 4 cbr 500 ------- 0 0.0 4.0 22 22
- 0.624 2 4 cbr 500 ------- 0 0.0 4.0 22 22
+ 0.625 0 2 cbr 500 ------- 0 0.0 4.0 25 25
- 0.625 0 2 cbr 500 ------- 0 0.0 4.0 25 25
r 0.628 2 4 cbr 500 ------- 0 0.0 4.0 20 20
r 0.629 0 2 cbr 500 ------- 0 0.0 4.0 23 23
+ 0.629 2 4 cbr 500 ------- 0 0.0 4.0 23 23
- 0.629 2 4 cbr 500 ------- 0 0.0 4.0 23 23
+ 0.63 0 2 cbr 500 ------- 0 0.0 4.0 26 26
- 0.63 0 2 cbr 500 ------- 0 0.0 4.0 26 26
r 0.633 2 4 cbr 500 ------- 0 0.0 4.0 21 21
r 0.634 0 2 cbr 500 ------- 0 0.0 4.0 24 24
+ 0.634 2 4 cbr 500 ------- 0 0.0 4.0 24 24
- 0.634 2 4 cbr 500 ------- 0 0.0 4.0 24 24
+ 0.635 0 2 cbr 500 ------- 0 0.0 4.0 27 27
- 0.635 0 2 cbr 500 ------- 0 0.0 4.0 27 27
r 0.638 2 4 cbr 500 ------- 0 0.0 4.0 22 22
r 0.639 0 2 cbr 500 ------- 0 0.0 4.0 25 25
+ 0.639 2 4 cbr 500 ------- 0 0.0 4.0 25 25
- 0.639 2 4 cbr 500 ------- 0 0.0 4.0 25 25
+ 0.64 0 2 cbr 500 ------- 0 0.0 4.0 28 28
- 0.64 0 2 cbr 500 ------- 0 0.0 4.0 28 28
r 0.643 2 4 cbr 500 ------- 0 0.0 4.0 23 23
r 0.644 0 2 cbr 500 ------- 0 0.0 4.0 26 26
+ 0.644 2 4 cbr 500 ------- 0 0.0 4.0 26 26
- 0.644 2 4 cbr 500 ------- 0 0.0 4.0 26 26
+ 0.645 0 2 cbr 500 ------- 0 0.0 4.0 29 29
- 0.645 0 2 cbr 500 ------- 0 0.0 4.0 29 29
r 0.648 2 4 cbr 500 ------- 0 0.0 4.0 24 24
r 0.649 0 2 cbr 500 ------- 0 0.0 4.0 27 27
+ 0.649 2 4 cbr 500 ------- 0 0.0 4.0 27 27
- 0.649 2 4 cbr 500 ------- 0 0.0 4.0 27 27
+ 0.65 0 2 cbr 500 ------- 0 0.0 4.0 30 30
- 0.65 0 2 cbr 500 ------- 0 0.0 4.0 30 30
r 0.653 2 4 cbr 500 ------- 0 0.0 4.0 25 25
r 0.654 0 2 cbr 500 ------- 0 0.0 4.0 28 28
+ 0.654 2 4 cbr 500 ------- 0 0.0 4.0 28 28
- 0.654 2 4 cbr 500 ------- 0 0.0 4.0 28 28
+ 0.655 0 2 cbr 500 ------- 0 0.0 4.0 31 31
- 0.655 0 2 cbr 500 ------- 0 0.0 4.0 31 31
r 0.658 2 4 cbr 500 ------- 0 0.0 4.0 26 26
r 0.659 0 2 cbr 500 ------- 0 0.0 4.0 29 29
+ 0.659 2 4 cbr 500 ------- 0 0.0 4.0 29 29
- 0.659 2 4 cbr 500 ------- 0 0.0 4.0 29 29
+ 0.66 0 2 cbr 500 ------- 0 0.0 4.0 32 32
- 0.66 0 2 cbr 500 ------- 0 0.0 4.0 32 32
r 0.663 2 4 cbr 500 ------- 0 0.0 4.0 27 27
r 0.664 0 2 cbr 500 ------- 0 0.0 4.0 30 30
+ 0.664 2 4 cbr 500 ------- 0 0.0 4.0 30 30
- 0.664 2 4 cbr 500 ------- 0 0.0 4.0 30 30
+ 0.665 0 2 cbr 500 ------- 0 0.0 4.0 33 33
- 0.665 0 2 cbr 500 ------- 0 0.0 4.0 33 33
r 0.668 2 4 cbr 500 ------- 0 0.0 4.0 28 28
r 0.669 0 2 cbr 500 ------- 0 0.0 4.0 31 31
+ 0.669 2 4 cbr 500 ------- 0 0.0 4.0 31 31
- 0.669 2 4 cbr 500 ------- 0 0.0 4.0 31 31
+ 0.67 0 2 cbr 500 ------- 0 0.0 4.0 34 34
- 0.67 0 2 cbr 500 ------- 0 0.0 4.0 34 34
r 0.673 2 4 cbr 500 ------- 0 0.0 4.0 29 29
r 0.674 0 2 cbr 500 ------- 0 0.0 4.0 32 32
+ 0.674 2 4 cbr 500 ------- 0 0.0 4.0 32 32
- 0.674 2 4 cbr 500 ------- 0 0.0 4.0 32 32
+ 0.675 0 2 cbr 500 ------- 0 0.0 4.0 35 35
- 0.675 0 2 cbr 500 ------- 0 0.0 4.0 35 35
r 0.678 2 4 cbr 500 ------- 0 0.0 4.0 30 30
r 0.679 0 2 cbr 500 ------- 0 0.0 4.0 33 33
+ 0.679 2 4 cbr 500 ------- 0 0.0 4.0 33 33
- 0.679 2 4 cbr 500 ------- 0 0.0 4.0 33 33
+ 0.68 0 2 cbr 500 ------- 0 0.0 4.0 36 36
- 0.68 0 2 cbr 500 ------- 0 0.0 4.0 36 36
r 0.683 2 4 cbr 500 ------- 0 0.0 4.0 31 31
r 0.684 0 2 cbr 500 ------- 0 0.0 4.0 34 34
+ 0.684 2 4 cbr 500 ------- 0 0.0 4.0 34 34
- 0.684 2 4 cbr 500 ------- 0 0.0 4.0 34 34
+ 0.685 0 2 cbr 500 ------- 0 0.0 4.0 37 37
- 0.685 0 2 cbr 500 ------- 0 0.0 4.0 37 37
r 0.688 2 4 cbr 500 ------- 0 0.0 4.0 32 32
r 0.689 0 2 cbr 500 ------- 0 0.0 4.0 35 35
+ 0.689 2 4 cbr 500 ------- 0 0.0 4.0 35 35
- 0.689 2 4 cbr 500 ------- 0 0.0 4.0 35 35
+ 0.69 0 2 cbr 500 ------- 0 0.0 4.0 38 38
- 0.69 0 2 cbr 500 ------- 0 0.0 4.0 38 38
r 0.693 2 4 cbr 500 ------- 0 0.0 4.0 33 33
r 0.694 0 2 cbr 500 ------- 0 0.0 4.0 36 36
+ 0.694 2 4 cbr 500 ------- 0 0.0 4.0 36 36
- 0.694 2 4 cbr 500 ------- 0 0.0 4.0 36 36
+ 0.695 0 2 cbr 500 ------- 0 0.0 4.0 39 39
- 0.695 0 2 cbr 500 ------- 0 0.0 4.0 39 39
r 0.698 2 4 cbr 500 ------- 0 0.0 4.0 34 34
r 0.699 0 2 cbr 500 ------- 0 0.0 4.0 37 37
+ 0.699 2 4 cbr 500 ------- 0 0.0 4.0 37 37
- 0.699 2 4 cbr 500 ------- 0 0.0 4.0 37 37
+ 0.7 0 2 cbr 500 ------- 0 0.0 4.0 40 40
- 0.7 0 2 cbr 500 ------- 0 0.0 4.0 40 40
r 0.703 2 4 cbr 500 ------- 0 0.0 4.0 35 35
r 0.704 0 2 cbr 500 ------- 0 0.0 4.0 38 38
+ 0.704 2 4 cbr 500 ------- 0 0.0 4.0 38 38
- 0.704 2 4 cbr 500 ------- 0 0.0 4.0 38 38
+ 0.705 0 2 cbr 500 ------- 0 0.0 4.0 41 41
- 0.705 0 2 cbr 500 ------- 0 0.0 4.0 41 41
r 0.708 2 4 cbr 500 ------- 0 0.0 4.0 36 36
r 0.709 0 2 cbr 500 ------- 0 0.0 4.0 39 39
+ 0.709 2 4 cbr 500 ------- 0 0.0 4.0 39 39
- 0.709 2 4 cbr 500 ------- 0 0.0 4.0 39 39
+ 0.71 0 2 cbr 500 ------- 0 0.0 4.0 42 42
- 0.71 0 2 cbr 500 ------- 0 0.0 4.0 42 42
r 0.713 2 4 cbr 500 ------- 0 0.0 4.0 37 37
r 0.714 0 2 cbr 500 ------- 0 0.0 4.0 40 40
+ 0.714 2 4 cbr 500 ------- 0 0.0 4.0 40 40
- 0.714 2 4 cbr 500 ------- 0 0.0 4.0 40 40
+ 0.715 0 2 cbr 500 ------- 0 0.0 4.0 43 43
- 0.715 0 2 cbr 500 ------- 0 0.0 4.0 43 43
r 0.718 2 4 cbr 500 ------- 0 0.0 4.0 38 38
r 0.719 0 2 cbr 500 ------- 0 0.0 4.0 41 41
+ 0.719 2 4 cbr 500 ------- 0 0.0 4.0 41 41
- 0.719 2 4 cbr 500 ------- 0 0.0 4.0 41 41
+ 0.72 0 2 cbr 500 ------- 0 0.0 4.0 44 44
- 0.72 0 2 cbr 500 ------- 0 0.0 4.0 44 44
r 0.723 2 4 cbr 500 ------- 0 0.0 4.0 39 39
r 0.724 0 2 cbr 500 ------- 0 0.0 4.0 42 42
+ 0.724 2 4 cbr 500 ------- 0 0.0 4.0 42 42
- 0.724 2 4 cbr 500 ------- 0 0.0 4.0 42 42
+ 0.725 0 2 cbr 500 ------- 0 0.0 4.0 45 45
- 0.725 0 2 cbr 500 ------- 0 0.0 4.0 45 45
r 0.728 2 4 cbr 500 ------- 0 0.0 4.0 40 40
r 0.729 0 2 cbr 500 ------- 0 0.0 4.0 43 43
+ 0.729 2 4 cbr 500 ------- 0 0.0 4.0 43 43
- 0.729 2 4 cbr 500 ------- 0 0.0 4.0 43 43
+ 0.73 0 2 cbr 500 ------- 0 0.0 4.0 46 46
- 0.73 0 2 cbr 500 ------- 0 0.0 4.0 46 46
r 0.733 2 4 cbr 500 ------- 0 0.0 4.0 41 41
r 0.734 0 2 cbr 500 ------- 0 0.0 4.0 44 44
+ 0.734 2 4 cbr 500 ------- 0 0.0 4.0 44 44
- 0.734 2 4 cbr 500 ------- 0 0.0 4.0 44 44
+ 0.735 0 2 cbr 500 ------- 0 0.0 4.0 47 47
- 0.735 0 2 cbr 500 ------- 0 0.0 4.0 47 47
r 0.738 2 4 cbr 500 ------- 0 0.0 4.0 42 42
r 0.739 0 2 cbr 500 ------- 0 0.0 4.0 45 45
+ 0.739 2 4 cbr 500 ------- 0 0.0 4.0 45 45
- 0.739 2 4 cbr 500 ------- 0 0.0 4.0 45 45
+ 0.74 0 2 cbr 500 ------- 0 0.0 4.0 48 48
- 0.74 0 2 cbr 500 ------- 0 0.0 4.0 48 48
r 0.743 2 4 cbr 500 ------- 0 0.0 4.0 43 43
r 0.744 0 2 cbr 500 ------- 0 0.0 4.0 46 46
+ 0.744 2 4 cbr 500 ------- 0 0.0 4.0 46 46
- 0.744 2 4 cbr 500 ------- 0 0.0 4.0 46 46
+ 0.745 0 2 cbr 500 ------- 0 0.0 4.0 49 49
- 0.745 0 2 cbr 500 ------- 0 0.0 4.0 49 49
r 0.748 2 4 cbr 500 ------- 0 0.0 4.0 44 44
r 0.749 0 2 cbr 500 ------- 0 0.0 4.0 47 47
+ 0.749 2 4 cbr 500 ------- 0 0.0 4.0 47 47
- 0.749 2 4 cbr 500 ------- 0 0.0 4.0 47 47
+ 0.75 0 2 cbr 500 ------- 0 0.0 4.0 50 50
- 0.75 0 2 cbr 500 ------- 0 0.0 4.0 50 50
r 0.753 2 4 cbr 500 ------- 0 0.0 4.0 45 45
r 0.754 0 2 cbr 500 ------- 0 0.0 4.0 48 48
+ 0.754 2 4 cbr 500 ------- 0 0.0 4.0 48 48
- 0.754 2 4 cbr 500 ------- 0 0.0 4.0 48 48
+ 0.755 0 2 cbr 500 ------- 0 0.0 4.0 51 51
- 0.755 0 2 cbr 500 ------- 0 0.0 4.0 51 51
r 0.758 2 4 cbr 500 ------- 0 0.0 4.0 46 46
r 0.759 0 2 cbr 500 ------- 0 0.0 4.0 49 49
+ 0.759 2 4 cbr 500 ------- 0 0.0 4.0 49 49
- 0.759 2 4 cbr 500 ------- 0 0.0 4.0 49 49
+ 0.76 0 2 cbr 500 ------- 0 0.0 4.0 52 52
- 0.76 0 2 cbr 500 ------- 0 0.0 4.0 52 52
r 0.763 2 4 cbr 500 ------- 0 0.0 4.0 47 47
r 0.764 0 2 cbr 500 ------- 0 0.0 4.0 50 50
+ 0.764 2 4 cbr 500 ------- 0 0.0 4.0 50 50
- 0.764 2 4 cbr 500 ------- 0 0.0 4.0 50 50
+ 0.765 0 2 cbr 500 ------- 0 0.0 4.0 53 53
- 0.765 0 2 cbr 500 ------- 0 0.0 4.0 53 53
r 0.768 2 4 cbr 500 ------- 0 0.0 4.0 48 48
r 0.769 0 2 cbr 500 ------- 0 0.0 4.0 51 51
+ 0.769 2 4 cbr 500 ------- 0 0.0 4.0 51 51
- 0.769 2 4 cbr 500 ------- 0 0.0 4.0 51 51
+ 0.77 0 2 cbr 500 ------- 0 0.0 4.0 54 54
- 0.77 0 2 cbr 500 ------- 0 0.0 4.0 54 54
r 0.773 2 4 cbr 500 ------- 0 0.0 4.0 49 49
r 0.774 0 2 cbr 500 ------- 0 0.0 4.0 52 52
+ 0.774 2 4 cbr 500 ------- 0 0.0 4.0 52 52
- 0.774 2 4 cbr 500 ------- 0 0.0 4.0 52 52
+ 0.775 0 2 cbr 500 ------- 0 0.0 4.0 55 55
- 0.775 0 2 cbr 500 ------- 0 0.0 4.0 55 55
r 0.778 2 4 cbr 500 ------- 0 0.0 4.0 50 50
r 0.779 0 2 cbr 500 ------- 0 0.0 4.0 53 53
+ 0.779 2 4 cbr 500 ------- 0 0.0 4.0 53 53
- 0.779 2 4 cbr 500 ------- 0 0.0 4.0 53 53
+ 0.78 0 2 cbr 500 ------- 0 0.0 4.0 56 56
- 0.78 0 2 cbr 500 ------- 0 0.0 4.0 56 56
r 0.783 2 4 cbr 500 ------- 0 0.0 4.0 51 51
r 0.784 0 2 cbr 500 ------- 0 0.0 4.0 54 54
+ 0.784 2 4 cbr 500 ------- 0 0.0 4.0 54 54
- 0.784 2 4 cbr 500 ------- 0 0.0 4.0 54 54
+ 0.785 0 2 cbr 500 ------- 0 0.0 4.0 57 57
- 0.785 0 2 cbr 500 ------- 0 0.0 4.0 57 57
r 0.788 2 4 cbr 500 ------- 0 0.0 4.0 52 52
r 0.789 0 2 cbr 500 ------- 0 0.0 4.0 55 55
+ 0.789 2 4 cbr 500 ------- 0 0.0 4.0 55 55
- 0.789 2 4 cbr 500 ------- 0 0.0 4.0 55 55
+ 0.79 0 2 cbr 500 ------- 0 0.0 4.0 58 58
- 0.79 0 2 cbr 500 ------- 0 0.0 4.0 58 58
r 0.793 2 4 cbr 500 ------- 0 0.0 4.0 53 53
r 0.794 0 2 cbr 500 ------- 0 0.0 4.0 56 56
+ 0.794 2 4 cbr 500 ------- 0 0.0 4.0 56 56
- 0.794 2 4 cbr 500 ------- 0 0.0 4.0 56 56
+ 0.795 0 2 cbr 500 ------- 0 0.0 4.0 59 59
- 0.795 0 2 cbr 500 ------- 0 0.0 4.0 59 59
r 0.798 2 4 cbr 500 ------- 0 0.0 4.0 54 54
r 0.799 0 2 cbr 500 ------- 0 0.0 4.0 57 57
+ 0.799 2 4 cbr 500 ------- 0 0.0 4.0 57 57
- 0.799 2 4 cbr 500 ------- 0 0.0 4.0 57 57
+ 0.8 0 2 cbr 500 ------- 0 0.0 4.0 60 60
- 0.8 0 2 cbr 500 ------- 0 0.0 4.0 60 60
r 0.803 2 4 cbr 500 ------- 0 0.0 4.0 55 55
r 0.804 0 2 cbr 500 ------- 0 0.0 4.0 58 58
+ 0.804 2 4 cbr 500 ------- 0 0.0 4.0 58 58
- 0.804 2 4 cbr 500 ------- 0 0.0 4.0 58 58
+ 0.805 0 2 cbr 500 ------- 0 0.0 4.0 61 61
- 0.805 0 2 cbr 500 ------- 0 0.0 4.0 61 61
r 0.808 2 4 cbr 500 ------- 0 0.0 4.0 56 56
r 0.809 0 2 cbr 500 ------- 0 0.0 4.0 59 59
+ 0.809 2 4 cbr 500 ------- 0 0.0 4.0 59 59
- 0.809 2 4 cbr 500 ------- 0 0.0 4.0 59 59
+ 0.81 0 2 cbr 500 ------- 0 0.0 4.0 62 62
- 0.81 0 2 cbr 500 ------- 0 0.0 4.0 62 62
r 0.813 2 4 cbr 500 ------- 0 0.0 4.0 57 57
r 0.814 0 2 cbr 500 ------- 0 0.0 4.0 60 60
+ 0.814 2 4 cbr 500 ------- 0 0.0 4.0 60 60
- 0.814 2 4 cbr 500 ------- 0 0.0 4.0 60 60
+ 0.815 0 2 cbr 500 ------- 0 0.0 4.0 63 63
- 0.815 0 2 cbr 500 ------- 0 0.0 4.0 63 63
r 0.818 2 4 cbr 500 ------- 0 0.0 4.0 58 58
r 0.819 0 2 cbr 500 ------- 0 0.0 4.0 61 61
+ 0.819 2 4 cbr 500 ------- 0 0.0 4.0 61 61
- 0.819 2 4 cbr 500 ------- 0 0.0 4.0 61 61
+ 0.82 0 2 cbr 500 ------- 0 0.0 4.0 64 64
- 0.82 0 2 cbr 500 ------- 0 0.0 4.0 64 64
r 0.823 2 4 cbr 500 ------- 0 0.0 4.0 59 59
r 0.824 0 2 cbr 500 ------- 0 0.0 4.0 62 62
+ 0.824 2 4 cbr 500 ------- 0 0.0 4.0 62 62
- 0.824 2 4 cbr 500 ------- 0 0.0 4.0 62 62
+ 0.825 0 2 cbr 500 ------- 0 0.0 4.0 65 65
- 0.825 0 2 cbr 500 ------- 0 0.0 4.0 65 65
r 0.828 2 4 cbr 500 ------- 0 0.0 4.0 60 60
r 0.829 0 2 cbr 500 ------- 0 0.0 4.0 63 63
+ 0.829 2 4 cbr 500 ------- 0 0.0 4.0 63 63
- 0.829 2 4 cbr 500 ------- 0 0.0 4.0 63 63
+ 0.83 0 2 cbr 500 ------- 0 0.0 4.0 66 66
- 0.83 0 2 cbr 500 ------- 0 0.0 4.0 66 66
r 0.833 2 4 cbr 500 ------- 0 0.0 4.0 61 61
r 0.834 0 2 cbr 500 ------- 0 0.0 4.0 64 64
+ 0.834 2 4 cbr 500 ------- 0 0.0 4.0 64 64
- 0.834 2 4 cbr 500 ------- 0 0.0 4.0 64 64
+ 0.835 0 2 cbr 500 ------- 0 0.0 4.0 67 67
- 0.835 0 2 cbr 500 ------- 0 0.0 4.0 67 67
r 0.838 2 4 cbr 500 ------- 0 0.0 4.0 62 62
r 0.839 0 2 cbr 500 ------- 0 0.0 4.0 65 65
+ 0.839 2 4 cbr 500 ------- 0 0.0 4.0 65 65
- 0.839 2 4 cbr 500 ------- 0 0.0 4.0 65 65
+ 0.84 0 2 cbr 500 ------- 0 0.0 4.0 68 68
- 0.84 0 2 cbr 500 ------- 0 0.0 4.0 68 68
r 0.843 2 4 cbr 500 ------- 0 0.0 4.0 63 63
r 0.844 0 2 cbr 500 ------- 0 0.0 4.0 66 66
+ 0.844 2 4 cbr 500 ------- 0 0.0 4.0 66 66
- 0.844 2 4 cbr 500 ------- 0 0.0 4.0 66 66
+ 0.845 0 2 cbr 500 ------- 0 0.0 4.0 69 69
- 0.845 0 2 cbr 500 ------- 0 0.0 4.0 69 69
r 0.848 2 4 cbr 500 ------- 0 0.0 4.0 64 64
r 0.849 0 2 cbr 500 ------- 0 0.0 4.0 67 67
+ 0.849 2 4 cbr 500 ------- 0 0.0 4.0 67 67
- 0.849 2 4 cbr 500 ------- 0 0.0 4.0 67 67
+ 0.85 0 2 cbr 500 ------- 0 0.0 4.0 70 70
- 0.85 0 2 cbr 500 ------- 0 0.0 4.0 70 70
r 0.853 2 4 cbr 500 ------- 0 0.0 4.0 65 65
r 0.854 0 2 cbr 500 ------- 0 0.0 4.0 68 68
+ 0.854 2 4 cbr 500 ------- 0 0.0 4.0 68 68
- 0.854 2 4 cbr 500 ------- 0 0.0 4.0 68 68
+ 0.855 0 2 cbr 500 ------- 0 0.0 4.0 71 71
- 0.855 0 2 cbr 500 ------- 0 0.0 4.0 71 71
r 0.858 2 4 cbr 500 ------- 0 0.0 4.0 66 66
r 0.859 0 2 cbr 500 ------- 0 0.0 4.0 69 69
+ 0.859 2 4 cbr 500 ------- 0 0.0 4.0 69 69
- 0.859 2 4 cbr 500 ------- 0 0.0 4.0 69 69
+ 0.86 0 2 cbr 500 ------- 0 0.0 4.0 72 72
- 0.86 0 2 cbr 500 ------- 0 0.0 4.0 72 72
r 0.863 2 4 cbr 500 ------- 0 0.0 4.0 67 67
r 0.864 0 2 cbr 500 ------- 0 0.0 4.0 70 70
+ 0.864 2 4 cbr 500 ------- 0 0.0 4.0 70 70
- 0.864 2 4 cbr 500 ------- 0 0.0 4.0 70 70
+ 0.865 0 2 cbr 500 ------- 0 0.0 4.0 73 73
- 0.865 0 2 cbr 500 ------- 0 0.0 4.0 73 73
r 0.868 2 4 cbr 500 ------- 0 0.0 4.0 68 68
r 0.869 0 2 cbr 500 ------- 0 0.0 4.0 71 71
+ 0.869 2 4 cbr 500 ------- 0 0.0 4.0 71 71
- 0.869 2 4 cbr 500 ------- 0 0.0 4.0 71 71
+ 0.87 0 2 cbr 500 ------- 0 0.0 4.0 74 74
- 0.87 0 2 cbr 500 ------- 0 0.0 4.0 74 74
r 0.873 2 4 cbr 500 ------- 0 0.0 4.0 69 69
r 0.874 0 2 cbr 500 ------- 0 0.0 4.0 72 72
+ 0.874 2 4 cbr 500 ------- 0 0.0 4.0 72 72
- 0.874 2 4 cbr 500 ------- 0 0.0 4.0 72 72
+ 0.875 0 2 cbr 500 ------- 0 0.0 4.0 75 75
- 0.875 0 2 cbr 500 ------- 0 0.0 4.0 75 75
r 0.878 2 4 cbr 500 ------- 0 0.0 4.0 70 70
r 0.879 0 2 cbr 500 ------- 0 0.0 4.0 73 73
+ 0.879 2 4 cbr 500 ------- 0 0.0 4.0 73 73
- 0.879 2 4 cbr 500 ------- 0 0.0 4.0 73 73
+ 0.88 0 2 cbr 500 ------- 0 0.0 4.0 76 76
- 0.88 0 2 cbr 500 ------- 0 0.0 4.0 76 76
r 0.883 2 4 cbr 500 ------- 0 0.0 4.0 71 71
r 0.884 0 2 cbr 500 ------- 0 0.0 4.0 74 74
+ 0.884 2 4 cbr 500 ------- 0 0.0 4.0 74 74
- 0.884 2 4 cbr 500 ------- 0 0.0 4.0 74 74
+ 0.885 0 2 cbr 500 ------- 0 0.0 4.0 77 77
- 0.885 0 2 cbr 500 ------- 0 0.0 4.0 77 77
r 0.888 2 4 cbr 500 ------- 0 0.0 4.0 72 72
r 0.889 0 2 cbr 500 ------- 0 0.0 4.0 75 75
+ 0.889 2 4 cbr 500 ------- 0 0.0 4.0 75 75
- 0.889 2 4 cbr 500 ------- 0 0.0 4.0 75 75
+ 0.89 0 2 cbr 500 ------- 0 0.0 4.0 78 78
- 0.89 0 2 cbr 500 ------- 0 0.0 4.0 78 78
r 0.893 2 4 cbr 500 ------- 0 0.0 4.0 73 73
r 0.894 0 2 cbr 500 ------- 0 0.0 4.0 76 76
+ 0.894 2 4 cbr 500 ------- 0 0.0 4.0 76 76
- 0.894 2 4 cbr 500 ------- 0 0.0 4.0 76 76
+ 0.895 0 2 cbr 500 ------- 0 0.0 4.0 79 79
- 0.895 0 2 cbr 500 ------- 0 0.0 4.0 79 79
r 0.898 2 4 cbr 500 ------- 0 0.0 4.0 74 74
r 0.899 0 2 cbr 500 ------- 0 0.0 4.0 77 77
+ 0.899 2 4 cbr 500 ------- 0 0.0 4.0 77 77
- 0.899 2 4 cbr 500 ------- 0 0.0 4.0 77 77
+ 0.9 0 2 cbr 500 ------- 0 0.0 4.0 80 80
- 0.9 0 2 cbr 500 ------- 0 0.0 4.0 80 80
r 0.903 2 4 cbr 500 ------- 0 0.0 4.0 75 75
r 0.904 0 2 cbr 500 ------- 0 0.0 4.0 78 78
+ 0.904 2 4 cbr 500 ------- 0 0.0 4.0 78 78
- 0.904 2 4 cbr 500 ------- 0 0.0 4.0 78 78
+ 0.905 0 2 cbr 500 ------- 0 0.0 4.0 81 81
- 0.905 0 2 cbr 500 ------- 0 0.0 4.0 81 81
r 0.908 2 4 cbr 500 ------- 0 0.0 4.0 76 76
r 0.909 0 2 cbr 500 ------- 0 0.0 4.0 79 79
+ 0.909 2 4 cbr 500 ------- 0 0.0 4.0 79 79
- 0.909 2 4 cbr 500 ------- 0 0.0 4.0 79 79
+ 0.91 0 2 cbr 500 ------- 0 0.0 4.0 82 82
- 0.91 0 2 cbr 500 ------- 0 0.0 4.0 82 82
r 0.913 2 4 cbr 500 ------- 0 0.0 4.0 77 77
r 0.914 0 2 cbr 500 ------- 0 0.0 4.0 80 80
+ 0.914 2 4 cbr 500 ------- 0 0.0 4.0 80 80
- 0.914 2 4 cbr 500 ------- 0 0.0 4.0 80 80
+ 0.915 0 2 cbr 500 ------- 0 0.0 4.0 83 83
- 0.915 0 2 cbr 500 ------- 0 0.0 4.0 83 83
r 0.918 2 4 cbr 500 ------- 0 0.0 4.0 78 78
r 0.919 0 2 cbr 500 ------- 0 0.0 4.0 81 81
+ 0.919 2 4 cbr 500 ------- 0 0.0 4.0 81 81
- 0.919 2 4 cbr 500 ------- 0 0.0 4.0 81 81
+ 0.92 0 2 cbr 500 ------- 0 0.0 4.0 84 84
- 0.92 0 2 cbr 500 ------- 0 0.0 4.0 84 84
r 0.923 2 4 cbr 500 ------- 0 0.0 4.0 79 79
r 0.924 0 2 cbr 500 ------- 0 0.0 4.0 82 82
+ 0.924 2 4 cbr 500 ------- 0 0.0 4.0 82 82
- 0.924 2 4 cbr 500 ------- 0 0.0 4.0 82 82
+ 0.925 0 2 cbr 500 ------- 0 0.0 4.0 85 85
- 0.925 0 2 cbr 500 ------- 0 0.0 4.0 85 85
r 0.928 2 4 cbr 500 ------- 0 0.0 4.0 80 80
r 0.929 0 2 cbr 500 ------- 0 0.0 4.0 83 83
+ 0.929 2 4 cbr 500 ------- 0 0.0 4.0 83 83
- 0.929 2 4 cbr 500 ------- 0 0.0 4.0 83 83
+ 0.93 0 2 cbr 500 ------- 0 0.0 4.0 86 86
- 0.93 0 2 cbr 500 ------- 0 0.0 4.0 86 86
r 0.933 2 4 cbr 500 ------- 0 0.0 4.0 81 81
r 0.934 0 2 cbr 500 ------- 0 0.0 4.0 84 84
+ 0.934 2 4 cbr 500 ------- 0 0.0 4.0 84 84
- 0.934 2 4 cbr 500 ------- 0 0.0 4.0 84 84
+ 0.935 0 2 cbr 500 ------- 0 0.0 4.0 87 87
- 0.935 0 2 cbr 500 ------- 0 0.0 4.0 87 87
r 0.938 2 4 cbr 500 ------- 0 0.0 4.0 82 82
r 0.939 0 2 cbr 500 ------- 0 0.0 4.0 85 85
+ 0.939 2 4 cbr 500 ------- 0 0.0 4.0 85 85
- 0.939 2 4 cbr 500 ------- 0 0.0 4.0 85 85
+ 0.94 0 2 cbr 500 ------- 0 0.0 4.0 88 88
- 0.94 0 2 cbr 500 ------- 0 0.0 4.0 88 88
r 0.943 2 4 cbr 500 ------- 0 0.0 4.0 83 83
r 0.944 0 2 cbr 500 ------- 0 0.0 4.0 86 86
+ 0.944 2 4 cbr 500 ------- 0 0.0 4.0 86 86
- 0.944 2 4 cbr 500 ------- 0 0.0 4.0 86 86
+ 0.945 0 2 cbr 500 ------- 0 0.0 4.0 89 89
- 0.945 0 2 cbr 500 ------- 0 0.0 4.0 89 89
r 0.948 2 4 cbr 500 ------- 0 0.0 4.0 84 84
r 0.949 0 2 cbr 500 ------- 0 0.0 4.0 87 87
+ 0.949 2 4 cbr 500 ------- 0 0.0 4.0 87 87
- 0.949 2 4 cbr 500 ------- 0 0.0 4.0 87 87
+ 0.95 0 2 cbr 500 ------- 0 0.0 4.0 90 90
- 0.95 0 2 cbr 500 ------- 0 0.0 4.0 90 90
r 0.953 2 4 cbr 500 ------- 0 0.0 4.0 85 85
r 0.954 0 2 cbr 500 ------- 0 0.0 4.0 88 88
+ 0.954 2 4 cbr 500 ------- 0 0.0 4.0 88 88
- 0.954 2 4 cbr 500 ------- 0 0.0 4.0 88 88
+ 0.955 0 2 cbr 500 ------- 0 0.0 4.0 91 91
- 0.955 0 2 cbr 500 ------- 0 0.0 4.0 91 91
r 0.958 2 4 cbr 500 ------- 0 0.0 4.0 86 86
r 0.959 0 2 cbr 500 ------- 0 0.0 4.0 89 89
+ 0.959 2 4 cbr 500 ------- 0 0.0 4.0 89 89
- 0.959 2 4 cbr 500 ------- 0 0.0 4.0 89 89
+ 0.96 0 2 cbr 500 ------- 0 0.0 4.0 92 92
- 0.96 0 2 cbr 500 ------- 0 0.0 4.0 92 92
r 0.963 2 4 cbr 500 ------- 0 0.0 4.0 87 87
r 0.964 0 2 cbr 500 ------- 0 0.0 4.0 90 90
+ 0.964 2 4 cbr 500 ------- 0 0.0 4.0 90 90
- 0.964 2 4 cbr 500 ------- 0 0.0 4.0 90 90
+ 0.965 0 2 cbr 500 ------- 0 0.0 4.0 93 93
- 0.965 0 2 cbr 500 ------- 0 0.0 4.0 93 93
r 0.968 2 4 cbr 500 ------- 0 0.0 4.0 88 88
r 0.969 0 2 cbr 500 ------- 0 0.0 4.0 91 91
+ 0.969 2 4 cbr 500 ------- 0 0.0 4.0 91 91
- 0.969 2 4 cbr 500 ------- 0 0.0 4.0 91 91
+ 0.97 0 2 cbr 500 ------- 0 0.0 4.0 94 94
- 0.97 0 2 cbr 500 ------- 0 0.0 4.0 94 94
r 0.973 2 4 cbr 500 ------- 0 0.0 4.0 89 89
r 0.974 0 2 cbr 500 ------- 0 0.0 4.0 92 92
+ 0.974 2 4 cbr 500 ------- 0 0.0 4.0 92 92
- 0.974 2 4 cbr 500 ------- 0 0.0 4.0 92 92
+ 0.975 0 2 cbr 500 ------- 0 0.0 4.0 95 95
- 0.975 0 2 cbr 500 ------- 0 0.0 4.0 95 95
r 0.978 2 4 cbr 500 ------- 0 0.0 4.0 90 90
r 0.979 0 2 cbr 500 ------- 0 0.0 4.0 93 93
+ 0.979 2 4 cbr 500 ------- 0 0.0 4.0 93 93
- 0.979 2 4 cbr 500 ------- 0 0.0 4.0 93 93
+ 0.98 0 2 cbr 500 ------- 0 0.0 4.0 96 96
- 0.98 0 2 cbr 500 ------- 0 0.0 4.0 96 96
r 0.983 2 4 cbr 500 ------- 0 0.0 4.0 91 91
r 0.984 0 2 cbr 500 ------- 0 0.0 4.0 94 94
+ 0.984 2 4 cbr 500 ------- 0 0.0 4.0 94 94
- 0.984 2 4 cbr 500 ------- 0 0.0 4.0 94 94
+ 0.985 0 2 cbr 500 ------- 0 0.0 4.0 97 97
- 0.985 0 2 cbr 500 ------- 0 0.0 4.0 97 97
r 0.988 2 4 cbr 500 ------- 0 0.0 4.0 92 92
r 0.989 0 2 cbr 500 ------- 0 0.0 4.0 95 95
+ 0.989 2 4 cbr 500 ------- 0 0.0 4.0 95 95
- 0.989 2 4 cbr 500 ------- 0 0.0 4.0 95 95
+ 0.99 0 2 cbr 500 ------- 0 0.0 4.0 98 98
- 0.99 0 2 cbr 500 ------- 0 0.0 4.0 98 98
r 0.993 2 4 cbr 500 ------- 0 0.0 4.0 93 93
r 0.994 0 2 cbr 500 ------- 0 0.0 4.0 96 96
+ 0.994 2 4 cbr 500 ------- 0 0.0 4.0 96 96
- 0.994 2 4 cbr 500 ------- 0 0.0 4.0 96 96
+ 0.995 0 2 cbr 500 ------- 0 0.0 4.0 99 99
- 0.995 0 2 cbr 500 ------- 0 0.0 4.0 99 99
r 0.998 2 4 cbr 500 ------- 0 0.0 4.0 94 94
r 0.999 0 2 cbr 500 ------- 0 0.0 4.0 97 97
+ 0.999 2 4 cbr 500 ------- 0 0.0 4.0 97 97
- 0.999 2 4 cbr 500 ------- 0 0.0 4.0 97 97
+ 1 1 2 cbr 200 ------- 1 1.0 4.0 0 100
- 1 1 2 cbr 200 ------- 1 1.0 4.0 0 100
+ 1 0 2 cbr 500 ------- 0 0.0 4.0 100 101
- 1 0 2 cbr 500 ------- 0 0.0 4.0 100 101
r 1.003 2 4 cbr 500 ------- 0 0.0 4.0 95 95
r 1.004 0 2 cbr 500 ------- 0 0.0 4.0 98 98
+ 1.004 2 4 cbr 500 ------- 0 0.0 4.0 98 98
- 1.004 2 4 cbr 500 ------- 0 0.0 4.0 98 98
+ 1.005 1 2 cbr 200 ------- 1 1.0 4.0 1 102
- 1.005 1 2 cbr 200 ------- 1 1.0 4.0 1 102
+ 1.005 0 2 cbr 500 ------- 0 0.0 4.0 101 103
- 1.005 0 2 cbr 500 ------- 0 0.0 4.0 101 103
r 1.008 2 4 cbr 500 ------- 0 0.0 4.0 96 96
r 1.009 0 2 cbr 500 ------- 0 0.0 4.0 99 99
+ 1.009 2 4 cbr 500 ------- 0 0.0 4.0 99 99
- 1.009 2 4 cbr 500 ------- 0 0.0 4.0 99 99
+ 1.01 1 2 cbr 200 ------- 1 1.0 4.0 2 104
- 1.01 1 2 cbr 200 ------- 1 1.0 4.0 2 104
+ 1.01 0 2 cbr 500 ------- 0 0.0 4.0 102 105
- 1.01 0 2 cbr 500 ------- 0 0.0 4.0 102 105
r 1.0116 1 2 cbr 200 ------- 1 1.0 4.0 0 100
+ 1.0116 2 4 cbr 200 ------- 1 1.0 4.0 0 100
r 1.013 2 4 cbr 500 ------- 0 0.0 4.0 97 97
- 1.013 2 4 cbr 200 ------- 1 1.0 4.0 0 100
r 1.014 0 2 cbr 500 ------- 0 0.0 4.0 100 101
+ 1.014 2 4 cbr 500 ------- 0 0.0 4.0 100 101
- 1.0146 2 4 cbr 500 ------- 0 0.0 4.0 100 101
+ 1.015 1 2 cbr 200 ------- 1 1.0 4.0 3 106
- 1.015 1 2 cbr 200 ------- 1 1.0 4.0 3 106
+ 1.015 0 2 cbr 500 ------- 0 0.0 4.0 103 107
- 1.015 0 2 cbr 500 ------- 0 0.0 4.0 103 107
r 1.0166 1 2 cbr 200 ------- 1 1.0 4.0 1 102
+ 1.0166 2 4 cbr 200 ------- 1 1.0 4.0 1 102
r 1.018 2 4 cbr 500 ------- 0 0.0 4.0 98 98
- 1.0186 2 4 cbr 200 ------- 1 1.0 4.0 1 102
r 1.019 0 2 cbr 500 ------- 0 0.0 4.0 101 103
+ 1.019 2 4 cbr 500 ------- 0 0.0 4.0 101 103
+ 1.02 1 2 cbr 200 ------- 1 1.0 4.0 4 108
- 1.02 1 2 cbr 200 ------- 1 1.0 4.0 4 108
+ 1.02 0 2 cbr 500 ------- 0 0.0 4.0 104 109
- 1.02 0 2 cbr 500 ------- 0 0.0 4.0 104 109
- 1.0202 2 4 cbr 500 ------- 0 0.0 4.0 101 103
r 1.0216 1 2 cbr 200 ------- 1 1.0 4.0 2 104
+ 1.0216 2 4 cbr 200 ------- 1 1.0 4.0 2 104
r 1.023 2 4 cbr 500 ------- 0 0.0 4.0 99 99
r 1.024 0 2 cbr 500 ------- 0 0.0 4.0 102 105
+ 1.024 2 4 cbr 500 ------- 0 0.0 4.0 102 105
- 1.0242 2 4 cbr 200 ------- 1 1.0 4.0 2 104
r 1.0246 2 4 cbr 200 ------- 1 1.0 4.0 0 100
+ 1.025 1 2 cbr 200 ------- 1 1.0 4.0 5 110
- 1.025 1 2 cbr 200 ------- 1 1.0 4.0 5 110
+ 1.025 0 2 cbr 500 ------- 0 0.0 4.0 105 111
- 1.025 0 2 cbr 500 ------- 0 0.0 4.0 105 111
- 1.0258 2 4 cbr 500 ------- 0 0.0 4.0 102 105
r 1.0266 1 2 cbr 200 ------- 1 1.0 4.0 3 106
+ 1.0266 2 4 cbr 200 ------- 1 1.0 4.0 3 106
r 1.0286 2 4 cbr 500 ------- 0 0.0 4.0 100 101
r 1.029 0 2 cbr 500 ------- 0 0.0 4.0 103 107
+ 1.029 2 4 cbr 500 ------- 0 0.0 4.0 103 107
- 1.0298 2 4 cbr 200 ------- 1 1.0 4.0 3 106
+ 1.03 1 2 cbr 200 ------- 1 1.0 4.0 6 112
- 1.03 1 2 cbr 200 ------- 1 1.0 4.0 6 112
+ 1.03 0 2 cbr 500 ------- 0 0.0 4.0 106 113
- 1.03 0 2 cbr 500 ------- 0 0.0 4.0 106 113
r 1.0302 2 4 cbr 200 ------- 1 1.0 4.0 1 102
- 1.0314 2 4 cbr 500 ------- 0 0.0 4.0 103 107
r 1.0316 1 2 cbr 200 ------- 1 1.0 4.0 4 108
+ 1.0316 2 4 cbr 200 ------- 1 1.0 4.0 4 108
r 1.034 0 2 cbr 500 ------- 0 0.0 4.0 104 109
+ 1.034 2 4 cbr 500 ------- 0 0.0 4.0 104 109
r 1.0342 2 4 cbr 500 ------- 0 0.0 4.0 101 103
+ 1.035 1 2 cbr 200 ------- 1 1.0 4.0 7 114
- 1.035 1 2 cbr 200 ------- 1 1.0 4.0 7 114
+ 1.035 0 2 cbr 500 ------- 0 0.0 4.0 107 115
- 1.035 0 2 cbr 500 ------- 0 0.0 4.0 107 115
- 1.0354 2 4 cbr 200 ------- 1 1.0 4.0 4 108
r 1.0358 2 4 cbr 200 ------- 1 1.0 4.0 2 104
r 1.0366 1 2 cbr 200 ------- 1 1.0 4.0 5 110
+ 1.0366 2 4 cbr 200 ------- 1 1.0 4.0 5 110
- 1.037 2 4 cbr 500 ------- 0 0.0 4.0 104 109
r 1.039 0 2 cbr 500 ------- 0 0.0 4.0 105 111
+ 1.039 2 4 cbr 500 ------- 0 0.0 4.0 105 111
r 1.0398 2 4 cbr 500 ------- 0 0.0 4.0 102 105
+ 1.04 1 2 cbr 200 ------- 1 1.0 4.0 8 116
- 1.04 1 2 cbr 200 ------- 1 1.0 4.0 8 116
+ 1.04 0 2 cbr 500 ------- 0 0.0 4.0 108 117
- 1.04 0 2 cbr 500 ------- 0 0.0 4.0 108 117
- 1.041 2 4 cbr 200 ------- 1 1.0 4.0 5 110
r 1.0414 2 4 cbr 200 ------- 1 1.0 4.0 3 106
r 1.0416 1 2 cbr 200 ------- 1 1.0 4.0 6 112
+ 1.0416 2 4 cbr 200 ------- 1 1.0 4.0 6 112
- 1.0426 2 4 cbr 500 ------- 0 0.0 4.0 105 111
r 1.044 0 2 cbr 500 ------- 0 0.0 4.0 106 113
+ 1.044 2 4 cbr 500 ------- 0 0.0 4.0 106 113
+ 1.045 1 2 cbr 200 ------- 1 1.0 4.0 9 118
- 1.045 1 2 cbr 200 ------- 1 1.0 4.0 9 118