V -t * -v 1.0a5 -a 0
A -t * -n 1 -p 0 -o 0x7fffffff -c 30 -a 1
A -t * -h 1 -m 1073741823 -s 0
n -t * -a 8 -s 8 -S UP -v circle -c black -i black
n -t * -a 4 -s 4 -S UP -v circle -c black -i black
n -t * -a 0 -s 0 -S UP -v circle -c black -i black
n -t * -a 10 -s 10 -S UP -v circle -c black -i black
n -t * -a 9 -s 9 -S UP -v circle -c black -i black
n -t * -a 5 -s 5 -S UP -v circle -c black -i black
n -t * -a 1 -s 1 -S UP -v circle -c black -i black
n -t * -a 6 -s 6 -S UP -v circle -c black -i black
n -t * -a 2 -s 2 -S UP -v circle -c black -i black
n -t * -a 7 -s 7 -S UP -v circle -c black -i black
n -t * -a 3 -s 3 -S UP -v circle -c black -i black
l -t * -s 0 -d 1 -S UP -r 500000 -D 0.01 -c black
l -t * -s 0 -d 2 -S UP -r 500000 -D 0.01 -c black
l -t * -s 0 -d 3 -S UP -r 500000 -D 0.01 -c black
l -t * -s 0 -d 4 -S UP -r 500000 -D 0.01 -c black
l -t * -s 0 -d 5 -S UP -r 500000 -D 0.01 -c black
l -t * -s 0 -d 6 -S UP -r 500000 -D 0.01 -c black
l -t * -s 0 -d 7 -S UP -r 500000 -D 0.01 -c black
l -t * -s 0 -d 8 -S UP -r 500000 -D 0.01 -c black
l -t * -s 0 -d 9 -S UP -r 500000 -D 0.01 -c black
l -t * -s 0 -d 10 -S UP -r 500000 -D 0.01 -c black
+ -t 0 -s 1 -d 0 -p cbr -e 500 -c 0 -i 0 -a 0 -x {1.0 0.0 0 ------- null}
- -t 0 -s 1 -d 0 -p cbr -e 500 -c 0 -i 0 -a 0 -x {1.0 0.0 0 ------- null}
h -t 0 -s 1 -d 0 -p cbr -e 500 -c 0 -i 0 -a 0 -x {1.0 0.0 -1 ------- null}
+ -t 0 -s 2 -d 0 -p cbr -e 500 -c 0 -i 1 -a 0 -x {2.0 0.0 0 ------- null}
- -t 0 -s 2 -d 0 -p cbr -e 500 -c 0 -i 1 -a 0 -x {2.0 0.0 0 ------- null}
h -t 0 -s 2 -d 0 -p cbr -e 500 -c 0 -i 1 -a 0 -x {2.0 0.0 -1 ------- null}
+ -t 0 -s 3 -d 0 -p cbr -e 500 -c 0 -i 2 -a 0 -x {3.0 0.0 0 ------- null}
- -t 0 -s 3 -d 0 -p cbr -e 500 -c 0 -i 2 -a 0 -x {3.0 0.0 0 ------- null}
h -t 0 -s 3 -d 0 -p cbr -e 500 -c 0 -i 2 -a 0 -x {3.0 0.0 -1 ------- null}
+ -t 0.005 -s 1 -d 0 -p cbr -e 500 -c 0 -i 3 -a 0 -x {1.0 0.0 1 ------- null}
+ -t 0.005 -s 2 -d 0 -p cbr -e 500 -c 0 -i 4 -a 0 -x {2.0 0.0 1 ------- null}
+ -t 0.005 -s 3 -d 0 -p cbr -e 500 -c 0 -i 5 -a 0 -x {3.0 0.0 1 ------- null}
- -t 0.008 -s 1 -d 0 -p cbr -e 500 -c 0 -i 3 -a 0 -x {1.0 0.0 1 ------- null}
h -t 0.008 -s 1 -d 0 -p cbr -e 500 -c 0 -i 3 -a 0 -x {1.0 0.0 -1 ------- null}
- -t 0.008 -s 2 -d 0 -p cbr -e 500 -c 0 -i 4 -a 0 -x {2.0 0.0 1 ------- null}
h -t 0.008 -s 2 -d 0 -p cbr -e 500 -c 0 -i 4 -a 0 -x {2.0 0.0 -1 ------- null}
- -t 0.008 -s 3 -d 0 -p cbr -e 500 -c 0 -i 5 -a 0 -x {3.0 0.0 1 ------- null}
h -t 0.008 -s 3 -d 0 -p cbr -e 500 -c 0 -i 5 -a 0 -x {3.0 0.0 -1 ------- null}
+ -t 0.01 -s 1 -d 0 -p cbr -e 500 -c 0 -i 6 -a 0 -x {1.0 0.0 2 ------- null}
+ -t 0.01 -s 2 -d 0 -p cbr -e 500 -c 0 -i 7 -a 0 -x {2.0 0.0 2 ------- null}
+ -t 0.01 -s 3 -d 0 -p cbr -e 500 -c 0 -i 8 -a 0 -x {3.0 0.0 2 ------- null}
+ -t 0.015 -s 1 -d 0 -p cbr -e 500 -c 0 -i 9 -a 0 -x {1.0 0.0 3 ------- null}
+ -t 0.015 -s 2 -d 0 -p cbr -e 500 -c 0 -i 10 -a 0 -x {2.0 0.0 3 ------- null}
+ -t 0.015 -s 3 -d 0 -p cbr -e 500 -c 0 -i 11 -a 0 -x {3.0 0.0 3 ------- null}
- -t 0.016 -s 1 -d 0 -p cbr -e 500 -c 0 -i 6 -a 0 -x {1.0 0.0 2 ------- null}
h -t 0.016 -s 1 -d 0 -p cbr -e 500 -c 0 -i 6 -a 0 -x {1.0 0.0 -1 ------- null}
- -t 0.016 -s 2 -d 0 -p cbr -e 500 -c 0 -i 7 -a 0 -x {2.0 0.0 2 ------- null}
h -t 0.016 -s 2 -d 0 -p cbr -e 500 -c 0 -i 7 -a 0 -x {2.0 0.0 -1 ------- null}
- -t 0.016 -s 3 -d 0 -p cbr -e 500 -c 0 -i 8 -a 0 -x {3.0 0.0 2 ------- null}
h -t 0.016 -s 3 -d 0 -p cbr -e 500 -c 0 -i 8 -a 0 -x {3.0 0.0 -1 ------- null}
r -t 0.018 -s 1 -d 0 -p cbr -e 500 -c 0 -i 0 -a 0 -x {1.0 0.0 0 ------- null}
r -t 0.018 -s 2 -d 0 -p cbr -e 500 -c 0 -i 1 -a 0 -x {2.0 0.0 0 ------- null}
r -t 0.018 -s 3 -d 0 -p cbr -e 500 -c 0 -i 2 -a 0 -x {3.0 0.0 0 ------- null}
+ -t 0.02 -s 1 -d 0 -p cbr -e 500 -c 0 -i 12 -a 0 -x {1.0 0.0 4 ------- null}
+ -t 0.02 -s 2 -d 0 -p cbr -e 500 -c 0 -i 13 -a 0 -x {2.0 0.0 4 ------- null}
+ -t 0.02 -s 3 -d 0 -p cbr -e 500 -c 0 -i 14 -a 0 -x {3.0 0.0 4 ------- null}
- -t 0.024 -s 1 -d 0 -p cbr -e 500 -c 0 -i 9 -a 0 -x {1.0 0.0 3 ------- null}
h -t 0.024 -s 1 -d 0 -p cbr -e 500 -c 0 -i 9 -a 0 -x {1.0 0.0 -1 ------- null}
- -t 0.024 -s 2 -d 0 -p cbr -e 500 -c 0 -i 10 -a 0 -x {2.0 0.0 3 ------- null}
h -t 0.024 -s 2 -d 0 -p cbr -e 500 -c 0 -i 10 -a 0 -x {2.0 0.0 -1 ------- null}
- -t 0.024 -s 3 -d 0 -p cbr -e 500 -c 0 -i 11 -a 0 -x {3.0 0.0 3 ------- null}
h -t 0.024 -s 3 -d 0 -p cbr -e 500 -c 0 -i 11 -a 0 -x {3.0 0.0 -1 ------- null}
+ -t 0.025 -s 1 -d 0 -p cbr -e 500 -c 0 -i 15 -a 0 -x {1.0 0.0 5 ------- null}
+ -t 0.025 -s 2 -d 0 -p cbr -e 500 -c 0 -i 16 -a 0 -x {2.0 0.0 5 ------- null}
+ -t 0.025 -s 3 -d 0 -p cbr -e 500 -c 0 -i 17 -a 0 -x {3.0 0.0 5 ------- null}
r -t 0.026 -s 1 -d 0 -p cbr -e 500 -c 0 -i 3 -a 0 -x {1.0 0.0 1 ------- null}
r -t 0.026 -s 2 -d 0 -p cbr -e 500 -c 0 -i 4 -a 0 -x {2.0 0.0 1 ------- null}
r -t 0.026 -s 3 -d 0 -p cbr -e 500 -c 0 -i 5 -a 0 -x {3.0 0.0 1 ------- null}
+ -t 0.03 -s 1 -d 0 -p cbr -e 500 -c 0 -i 18 -a 0 -x {1.0 0.0 6 ------- null}
+ -t 0.03 -s 2 -d 0 -p cbr -e 500 -c 0 -i 19 -a 0 -x {2.0 0.0 6 ------- null}
+ -t 0.03 -s 3 -d 0 -p cbr -e 500 -c 0 -i 20 -a 0 -x {3.0 0.0 6 ------- null}
- -t 0.032 -s 1 -d 0 -p cbr -e 500 -c 0 -i 12 -a 0 -x {1.0 0.0 4 ------- null}
h -t 0.032 -s 1 -d 0 -p cbr -e 500 -c 0 -i 12 -a 0 -x {1.0 0.0 -1 ------- null}
- -t 0.032 -s 2 -d 0 -p cbr -e 500 -c 0 -i 13 -a 0 -x {2.0 0.0 4 ------- null}
h -t 0.032 -s 2 -d 0 -p cbr -e 500 -c 0 -i 13 -a 0 -x {2.0 0.0 -1 ------- null}
- -t 0.032 -s 3 -d 0 -p cbr -e 500 -c 0 -i 14 -a 0 -x {3.0 0.0 4 ------- null}
h -t 0.032 -s 3 -d 0 -p cbr -e 500 -c 0 -i 14 -a 0 -x {3.0 0.0 -1 ------- null}
r -t 0.034 -s 1 -d 0 -p cbr -e 500 -c 0 -i 6 -a 0 -x {1.0 0.0 2 ------- null}
r -t 0.034 -s 2 -d 0 -p cbr -e 500 -c 0 -i 7 -a 0 -x {2.0 0.0 2 ------- null}
r -t 0.034 -s 3 -d 0 -p cbr -e 500 -c 0 -i 8 -a 0 -x {3.0 0.0 2 ------- null}
+ -t 0.035 -s 1 -d 0 -p cbr -e 500 -c 0 -i 21 -a 0 -x {1.0 0.0 7 ------- null}
+ -t 0.035 -s 2 -d 0 -p cbr -e 500 -c 0 -i 22 -a 0 -x {2.0 0.0 7 ------- null}
+ -t 0.035 -s 3 -d 0 -p cbr -e 500 -c 0 -i 23 -a 0 -x {3.0 0.0 7 ------- null}
- -t 0.04 -s 1 -d 0 -p cbr -e 500 -c 0 -i 15 -a 0 -x {1.0 0.0 5 ------- null}
h -t 0.04 -s 1 -d 0 -p cbr -e 500 -c 0 -i 15 -a 0 -x {1.0 0.0 -1 ------- null}
- -t 0.04 -s 2 -d 0 -p cbr -e 500 -c 0 -i 16 -a 0 -x {2.0 0.0 5 ------- null}
h -t 0.04 -s 2 -d 0 -p cbr -e 500 -c 0 -i 16 -a 0 -x {2.0 0.0 -1 ------- null}
- -t 0.04 -s 3 -d 0 -p cbr -e 500 -c 0 -i 17 -a 0 -x {3.0 0.0 5 ------- null}
h -t 0.04 -s 3 -d 0 -p cbr -e 500 -c 0 -i 17 -a 0 -x {3.0 0.0 -1 ------- null}
+ -t 0.04 -s 1 -d 0 -p cbr -e 500 -c 0 -i 24 -a 0 -x {1.0 0.0 8 ------- null}
+ -t 0.04 -s 2 -d 0 -p cbr -e 500 -c 0 -i 25 -a 0 -x {2.0 0.0 8 ------- null}
+ -t 0.04 -s 3 -d 0 -p cbr -e 500 -c 0 -i 26 -a 0 -x {3.0 0.0 8 ------- null}
r -t 0.042 -s 1 -d 0 -p cbr -e 500 -c 0 -i 9 -a 0 -x {1.0 0.0 3 ------- null}
r -t 0.042 -s 2 -d 0 -p cbr -e 500 -c 0 -i 10 -a 0 -x {2.0 0.0 3 ------- null}
r -t 0.042 -s 3 -d 0 -p cbr -e 500 -c 0 -i 11 -a 0 -x {3.0 0.0 3 ------- null}
+ -t 0.045 -s 1 -d 0 -p cbr -e 500 -c 0 -i 27 -a 0 -x {1.0 0.0 9 ------- null}
+ -t 0.045 -s 2 -d 0 -p cbr -e 500 -c 0 -i 28 -a 0 -x {2.0 0.0 9 ------- null}
+ -t 0.045 -s 3 -d 0 -p cbr -e 500 -c 0 -i 29 -a 0 -x {3.0 0.0 9 ------- null}
- -t 0.048 -s 1 -d 0 -p cbr -e 500 -c 0 -i 18 -a 0 -x {1.0 0.0 6 ------- null}
h -t 0.048 -s 1 -d 0 -p cbr -e 500 -c 0 -i 18 -a 0 -x {1.0 0.0 -1 ------- null}
- -t 0.048 -s 2 -d 0 -p cbr -e 500 -c 0 -i 19 -a 0 -x {2.0 0.0 6 ------- null}
h -t 0.048 -s 2 -d 0 -p cbr -e 500 -c 0 -i 19 -a 0 -x {2.0 0.0 -1 ------- null}
- -t 0.048 -s 3 -d 0 -p cbr -e 500 -c 0 -i 20 -a 0 -x {3.0 0.0 6 ------- null}
h -t 0.048 -s 3 -d 0 -p cbr -e 500 -c 0 -i 20 -a 0 -x {3.0 0.0 -1 ------- null}
+ -t 0.05 -s 1 -d 0 -p cbr -e 500 -c 0 -i 30 -a 0 -x {1.0 0.0 10 ------- null}
+ -t 0.05 -s 2 -d 0 -p cbr -e 500 -c 0 -i 31 -a 0 -x {2.0 0.0 10 ------- null}
+ -t 0.05 -s 3 -d 0 -p cbr -e 500 -c 0 -i 32 -a 0 -x {3.0 0.0 10 ------- null}
r -t 0.05 -s 1 -d 0 -p cbr -e 500 -c 0 -i 12 -a 0 -x {1.0 0.0 4 ------- null}
r -t 0.05 -s 2 -d 0 -p cbr -e 500 -c 0 -i 13 -a 0 -x {2.0 0.0 4 ------- null}
r -t 0.05 -s 3 -d 0 -p cbr -e 500 -c 0 -i 14 -a 0 -x {3.0 0.0 4 ------- null}
+ -t 0.055 -s 1 -d 0 -p cbr -e 500 -c 0 -i 33 -a 0 -x {1.0 0.0 11 ------- null}
+ -t 0.055 -s 2 -d 0 -p cbr -e 500 -c 0 -i 34 -a 0 -x {2.0 0.0 11 ------- null}
+ -t 0.055 -s 3 -d 0 -p cbr -e 500 -c 0 -i 35 -a 0 -x {3.0 0.0 11 ------- null}
- -t 0.056 -s 1 -d 0 -p cbr -e 500 -c 0 -i 21 -a 0 -x {1.0 0.0 7 ------- null}
h -t 0.056 -s 1 -d 0 -p cbr -e 500 -c 0 -i 21 -a 0 -x {1.0 0.0 -1 ------- null}
- -t 0.056 -s 2 -d 0 -p cbr -e 500 -c 0 -i 22 -a 0 -x {2.0 0.0 7 ------- null}
h -t 0.056 -s 2 -d 0 -p cbr -e 500 -c 0 -i 22 -a 0 -x {2.0 0.0 -1 ------- null}
- -t 0.056 -s 3 -d 0 -p cbr -e 500 -c 0 -i 23 -a 0 -x {3.0 0.0 7 ------- null}
h -t 0.056 -s 3 -d 0 -p cbr -e 500 -c 0 -i 23 -a 0 -x {3.0 0.0 -1 ------- null}
r -t 0.058 -s 1 -d 0 -p cbr -e 500 -c 0 -i 15 -a 0 -x {1.0 0.0 5 ------- null}
r -t 0.058 -s 2 -d 0 -p cbr -e 500 -c 0 -i 16 -a 0 -x {2.0 0.0 5 ------- null}
r -t 0.058 -s 3 -d 0 -p cbr -e 500 -c 0 -i 17 -a 0 -x {3.0 0.0 5 ------- null}
+ -t 0.06 -s 1 -d 0 -p cbr -e 500 -c 0 -i 36 -a 0 -x {1.0 0.0 12 ------- null}
+ -t 0.06 -s 2 -d 0 -p cbr -e 500 -c 0 -i 37 -a 0 -x {2.0 0.0 12 ------- null}
+ -t 0.06 -s 3 -d 0 -p cbr -e 500 -c 0 -i 38 -a 0 -x {3.0 0.0 12 ------- null}
- -t 0.064 -s 1 -d 0 -p cbr -e 500 -c 0 -i 24 -a 0 -x {1.0 0.0 8 ------- null}
h -t 0.064 -s 1 -d 0 -p cbr -e 500 -c 0 -i 24 -a 0 -x {1.0 0.0 -1 ------- null}
- -t 0.064 -s 2 -d 0 -p cbr -e 500 -c 0 -i 25 -a 0 -x {2.0 0.0 8 ------- null}
h -t 0.064 -s 2 -d 0 -p cbr -e 500 -c 0 -i 25 -a 0 -x {2.0 0.0 -1 ------- null}
- -t 0.064 -s 3 -d 0 -p cbr -e 500 -c 0 -i 26 -a 0 -x {3.0 0.0 8 ------- null}
h -t 0.064 -s 3 -d 0 -p cbr -e 500 -c 0 -i 26 -a 0 -x {3.0 0.0 -1 ------- null}
+ -t 0.065 -s 1 -d 0 -p cbr -e 500 -c 0 -i 39 -a 0 -x {1.0 0.0 13 ------- null}
+ -t 0.065 -s 2 -d 0 -p cbr -e 500 -c 0 -i 40 -a 0 -x {2.0 0.0 13 ------- null}
+ -t 0.065 -s 3 -d 0 -p cbr -e 500 -c 0 -i 41 -a 0 -x {3.0 0.0 13 ------- null}
r -t 0.066 -s 1 -d 0 -p cbr -e 500 -c 0 -i 18 -a 0 -x {1.0 0.0 6 ------- null}
r -t 0.066 -s 2 -d 0 -p cbr -e 500 -c 0 -i 19 -a 0 -x {2.0 0.0 6 ------- null}
r -t 0.066 -s 3 -d 0 -p cbr -e 500 -c 0 -i 20 -a 0 -x {3.0 0.0 6 ------- null}
+ -t 0.07 -s 1 -d 0 -p cbr -e 500 -c 0 -i 42 -a 0 -x {1.0 0.0 14 ------- null}
+ -t 0.07 -s 2 -d 0 -p cbr -e 500 -c 0 -i 43 -a 0 -x {2.0 0.0 14 ------- null}
+ -t 0.07 -s 3 -d 0 -p cbr -e 500 -c 0 -i 44 -a 0 -x {3.0 0.0 14 ------- null}
- -t 0.072 -s 1 -d 0 -p cbr -e 500 -c 0 -i 27 -a 0 -x {1.0 0.0 9 ------- null}
h -t 0.072 -s 1 -d 0 -p cbr -e 500 -c 0 -i 27 -a 0 -x {1.0 0.0 -1 ------- null}
- -t 0.072 -s 2 -d 0 -p cbr -e 500 -c 0 -i 28 -a 0 -x {2.0 0.0 9 ------- null}
h -t 0.072 -s 2 -d 0 -p cbr -e 500 -c 0 -i 28 -a 0 -x {2.0 0.0 -1 ------- null}
- -t 0.072 -s 3 -d 0 -p cbr -e 500 -c 0 -i 29 -a 0 -x {3.0 0.0 9 ------- null}
h -t 0.072 -s 3 -d 0 -p cbr -e 500 -c 0 -i 29 -a 0 -x {3.0 0.0 -1 ------- null}
r -t 0.074 -s 1 -d 0 -p cbr -e 500 -c 0 -i 21 -a 0 -x {1.0 0.0 7 ------- null}
r -t 0.074 -s 2 -d 0 -p cbr -e 500 -c 0 -i 22 -a 0 -x {2.0 0.0 7 ------- null}
r -t 0.074 -s 3 -d 0 -p cbr -e 500 -c 0 -i 23 -a 0 -x {3.0 0.0 7 ------- null}
+ -t 0.075 -s 1 -d 0 -p cbr -e 500 -c 0 -i 45 -a 0 -x {1.0 0.0 15 ------- null}
+ -t 0.075 -s 2 -d 0 -p cbr -e 500 -c 0 -i 46 -a 0 -x {2.0 0.0 15 ------- null}
+ -t 0.075 -s 3 -d 0 -p cbr -e 500 -c 0 -i 47 -a 0 -x {3.0 0.0 15 ------- null}
+ -t 0.08 -s 1 -d 0 -p cbr -e 500 -c 0 -i 48 -a 0 -x {1.0 0.0 16 ------- null}
+ -t 0.08 -s 2 -d 0 -p cbr -e 500 -c 0 -i 49 -a 0 -x {2.0 0.0 16 ------- null}
+ -t 0.08 -s 3 -d 0 -p cbr -e 500 -c 0 -i 50 -a 0 -x {3.0 0.0 16 ------- null}
- -t 0.08 -s 1 -d 0 -p cbr -e 500 -c 0 -i 30 -a 0 -x {1.0 0.0 10 ------- null}
h -t 0.08 -s 1 -d 0 -p cbr -e 500 -c 0 -i 30 -a 0 -x {1.0 0.0 -1 ------- null}
- -t 0.08 -s 2 -d 0 -p cbr -e 500 -c 0 -i 31 -a 0 -x {2.0 0.0 10 ------- null}
h -t 0.08 -s 2 -d 0 -p cbr -e 500 -c 0 -i 31 -a 0 -x {2.0 0.0 -1 ------- null}
- -t 0.08 -s 3 -d 0 -p cbr -e 500 -c 0 -i 32 -a 0 -x {3.0 0.0 10 ------- null}
h -t 0.08 -s 3 -d 0 -p cbr -e 500 -c 0 -i 32 -a 0 -x {3.0 0.0 -1 ------- null}
r -t 0.082 -s 1 -d 0 -p cbr -e 500 -c 0 -i 24 -a 0 -x {1.0 0.0 8 ------- null}
r -t 0.082 -s 2 -d 0 -p cbr -e 500 -c 0 -i 25 -a 0 -x {2.0 0.0 8 ------- null}
r -t 0.082 -s 3 -d 0 -p cbr -e 500 -c 0 -i 26 -a 0 -x {3.0 0.0 8 ------- null}
+ -t 0.085 -s 1 -d 0 -p cbr -e 500 -c 0 -i 51 -a 0 -x {1.0 0.0 17 ------- null}
+ -t 0.085 -s 2 -d 0 -p cbr -e 500 -c 0 -i 52 -a 0 -x {2.0 0.0 17 ------- null}
+ -t 0.085 -s 3 -d 0 -p cbr -e 500 -c 0 -i 53 -a 0 -x {3.0 0.0 17 ------- null}
- -t 0.088 -s 1 -d 0 -p cbr -e 500 -c 0 -i 33 -a 0 -x {1.0 0.0 11 ------- null}
h -t 0.088 -s 1 -d 0 -p cbr -e 500 -c 0 -i 33 -a 0 -x {1.0 0.0 -1 ------- null}
- -t 0.088 -s 2 -d 0 -p cbr -e 500 -c 0 -i 34 -a 0 -x {2.0 0.0 11 ------- null}
h -t 0.088 -s 2 -d 0 -p cbr -e 500 -c 0 -i 34 -a 0 -x {2.0 0.0 -1 ------- null}
- -t 0.088 -s 3 -d 0 -p cbr -e 500 -c 0 -i 35 -a 0 -x {3.0 0.0 11 ------- null}
h -t 0.088 -s 3 -d 0 -p cbr -e 500 -c 0 -i 35 -a 0 -x {3.0 0.0 -1 ------- null}
r -t 0.09 -s 1 -d 0 -p cbr -e 500 -c 0 -i 27 -a 0 -x {1.0 0.0 9 ------- null}
r -t 0.09 -s 2 -d 0 -p cbr -e 500 -c 0 -i 28 -a 0 -x {2.0 0.0 9 ------- null}
r -t 0.09 -s 3 -d 0 -p cbr -e 500 -c 0 -i 29 -a 0 -x {3.0 0.0 9 ------- null}
+ -t 0.09 -s 1 -d 0 -p cbr -e 500 -c 0 -i 54 -a 0 -x {1.0 0.0 18 ------- null}
+ -t 0.09 -s 2 -d 0 -p cbr -e 500 -c 0 -i 55 -a 0 -x {2.0 0.0 18 ------- null}
+ -t 0.09 -s 3 -d 0 -p cbr -e 500 -c 0 -i 56 -a 0 -x {3.0 0.0 18 ------- null}
+ -t 0.095 -s 1 -d 0 -p cbr -e 500 -c 0 -i 57 -a 0 -x {1.0 0.0 19 ------- null}
+ -t 0.095 -s 2 -d 0 -p cbr -e 500 -c 0 -i 58 -a 0 -x {2.0 0.0 19 ------- null}
+ -t 0.095 -s 3 -d 0 -p cbr -e 500 -c 0 -i 59 -a 0 -x {3.0 0.0 19 ------- null}
- -t 0.096 -s 1 -d 0 -p cbr -e 500 -c 0 -i 36 -a 0 -x {1.0 0.0 12 ------- null}
h -t 0.096 -s 1 -d 0 -p cbr -e 500 -c 0 -i 36 -a 0 -x {1.0 0.0 -1 ------- null}
- -t 0.096 -s 2 -d 0 -p cbr -e 500 -c 0 -i 37 -a 0 -x {2.0 0.0 12 ------- null}
h -t 0.096 -s 2 -d 0 -p cbr -e 500 -c 0 -i 37 -a 0 -x {2.0 0.0 -1 ------- null}
- -t 0.096 -s 3 -d 0 -p cbr -e 500 -c 0 -i 38 -a 0 -x {3.0 0.0 12 ------- null}
h -t 0.096 -s 3 -d 0 -p cbr -e 500 -c 0 -i 38 -a 0 -x {3.0 0.0 -1 ------- null}
r -t 0.098 -s 1 -d 0 -p cbr -e 500 -c 0 -i 30 -a 0 -x {1.0 0.0 10 ------- null}
r -t 0.098 -s 2 -d 0 -p cbr -e 500 -c 0 -i 31 -a 0 -x {2.0 0.0 10 ------- null}
r -t 0.098 -s 3 -d 0 -p cbr -e 500 -c 0 -i 32 -a 0 -x {3.0 0.0 10 ------- null}
+ -t 0.1 -s 1 -d 0 -p cbr -e 500 -c 0 -i 60 -a 0 -x {1.0 0.0 20 ------- null}
+ -t 0.1 -s 2 -d 0 -p cbr -e 500 -c 0 -i 61 -a 0 -x {2.0 0.0 20 ------- null}
+ -t 0.1 -s 3 -d 0 -p cbr -e 500 -c 0 -i 62 -a 0 -x {3.0 0.0 20 ------- null}
- -t 0.104 -s 1 -d 0 -p cbr -e 500 -c 0 -i 39 -a 0 -x {1.0 0.0 13 ------- null}
h -t 0.104 -s 1 -d 0 -p cbr -e 500 -c 0 -i 39 -a 0 -x {1.0 0.0 -1 ------- null}
- -t 0.104 -s 2 -d 0 -p cbr -e 500 -c 0 -i 40 -a 0 -x {2.0 0.0 13 ------- null}
h -t 0.104 -s 2 -d 0 -p cbr -e 500 -c 0 -i 40 -a 0 -x {2.0 0.0 -1 ------- null}
- -t 0.104 -s 3 -d 0 -p cbr -e 500 -c 0 -i 41 -a 0 -x {3.0 0.0 13 ------- null}
h -t 0.104 -s 3 -d 0 -p cbr -e 500 -c 0 -i 41 -a 0 -x {3.0 0.0 -1 ------- null}
+ -t 0.105 -s 1 -d 0 -p cbr -e 500 -c 0 -i 63 -a 0 -x {1.0 0.0 21 ------- null}
+ -t 0.105 -s 2 -d 0 -p cbr -e 500 -c 0 -i 64 -a 0 -x {2.0 0.0 21 ------- null}
+ -t 0.105 -s 3 -d 0 -p cbr -e 500 -c 0 -i 65 -a 0 -x {3.0 0.0 21 ------- null}
r -t 0.106 -s 1 -d 0 -p cbr -e 500 -c 0 -i 33 -a 0 -x {1.0 0.0 11 ------- null}
r -t 0.106 -s 2 -d 0 -p cbr -e 500 -c 0 -i 34 -a 0 -x {2.0 0.0 11 ------- null}
r -t 0.106 -s 3 -d 0 -p cbr -e 500 -c 0 -i 35 -a 0 -x {3.0 0.0 11 ------- null}
+ -t 0.11 -s 1 -d 0 -p cbr -e 500 -c 0 -i 66 -a 0 -x {1.0 0.0 22 ------- null}
+ -t 0.11 -s 2 -d 0 -p cbr -e 500 -c 0 -i 67 -a 0 -x {2.0 0.0 22 ------- null}
+ -t 0.11 -s 3 -d 0 -p cbr -e 500 -c 0 -i 68 -a 0 -x {3.0 0.0 22 ------- null}
- -t 0.112 -s 1 -d 0 -p cbr -e 500 -c 0 -i 42 -a 0 -x {1.0 0.0 14 ------- null}
h -t 0.112 -s 1 -d 0 -p cbr -e 500 -c 0 -i 42 -a 0 -x {1.0 0.0 -1 ------- null}
- -t 0.112 -s 2 -d 0 -p cbr -e 500 -c 0 -i 43 -a 0 -x {2.0 0.0 14 ------- null}
h -t 0.112 -s 2 -d 0 -p cbr -e 500 -c 0 -i 43 -a 0 -x {2.0 0.0 -1 ------- null}
- -t 0.112 -s 3 -d 0 -p cbr -e 500 -c 0 -i 44 -a 0 -x {3.0 0.0 14 ------- null}
h -t 0.112 -s 3 -d 0 -p cbr -e 500 -c 0 -i 44 -a 0 -x {3.0 0.0 -1 ------- null}
r -t 0.114 -s 1 -d 0 -p cbr -e 500 -c 0 -i 36 -a 0 -x {1.0 0.0 12 ------- null}
r -t 0.114 -s 2 -d 0 -p cbr -e 500 -c 0 -i 37 -a 0 -x {2.0 0.0 12 ------- null}
r -t 0.114 -s 3 -d 0 -p cbr -e 500 -c 0 -i 38 -a 0 -x {3.0 0.0 12 ------- null}
+ -t 0.115 -s 1 -d 0 -p cbr -e 500 -c 0 -i 69 -a 0 -x {1.0 0.0 23 ------- null}
+ -t 0.115 -s 2 -d 0 -p cbr -e 500 -c 0 -i 70 -a 0 -x {2.0 0.0 23 ------- null}
+ -t 0.115 -s 3 -d 0 -p cbr -e 500 -c 0 -i 71 -a 0 -x {3.0 0.0 23 ------- null}
+ -t 0.12 -s 1 -d 0 -p cbr -e 500 -c 0 -i 72 -a 0 -x {1.0 0.0 24 ------- null}
+ -t 0.12 -s 2 -d 0 -p cbr -e 500 -c 0 -i 73 -a 0 -x {2.0 0.0 24 ------- null}
+ -t 0.12 -s 3 -d 0 -p cbr -e 500 -c 0 -i 74 -a 0 -x {3.0 0.0 24 ------- null}
- -t 0.12 -s 1 -d 0 -p cbr -e 500 -c 0 -i 45 -a 0 -x {1.0 0.0 15 ------- null}
h -t 0.12 -s 1 -d 0 -p cbr -e 500 -c 0 -i 45 -a 0 -x {1.0 0.0 -1 ------- null}
- -t 0.12 -s 2 -d 0 -p cbr -e 500 -c 0 -i 46 -a 0 -x {2.0 0.0 15 ------- null}
h -t 0.12 -s 2 -d 0 -p cbr -e 500 -c 0 -i 46 -a 0 -x {2.0 0.0 -1 ------- null}
- -t 0.12 -s 3 -d 0 -p cbr -e 500 -c 0 -i 47 -a 0 -x {3.0 0.0 15 ------- null}
h -t 0.12 -s 3 -d 0 -p cbr -e 500 -c 0 -i 47 -a 0 -x {3.0 0.0 -1 ------- null}
r -t 0.122 -s 1 -d 0 -p cbr -e 500 -c 0 -i 39 -a 0 -x {1.0 0.0 13 ------- null}
r -t 0.122 -s 2 -d 0 -p cbr -e 500 -c 0 -i 40 -a 0 -x {2.0 0.0 13 ------- null}
r -t 0.122 -s 3 -d 0 -p cbr -e 500 -c 0 -i 41 -a 0 -x {3.0 0.0 13 ------- null}
+ -t 0.125 -s 1 -d 0 -p cbr -e 500 -c 0 -i 75 -a 0 -x {1.0 0.0 25 ------- null}
+ -t 0.125 -s 2 -d 0 -p cbr -e 500 -c 0 -i 76 -a 0 -x {2.0 0.0 25 ------- null}
+ -t 0.125 -s 3 -d 0 -p cbr -e 500 -c 0 -i 77 -a 0 -x {3.0 0.0 25 ------- null}
- -t 0.128 -s 1 -d 0 -p cbr -e 500 -c 0 -i 48 -a 0 -x {1.0 0.0 16 ------- null}
h -t 0.128 -s 1 -d 0 -p cbr -e 500 -c 0 -i 48 -a 0 -x {1.0 0.0 -1 ------- null}
- -t 0.128 -s 2 -d 0 -p cbr -e 500 -c 0 -i 49 -a 0 -x {2.0 0.0 16 ------- null}
h -t 0.128 -s 2 -d 0 -p cbr -e 500 -c 0 -i 49 -a 0 -x {2.0 0.0 -1 ------- null}
- -t 0.128 -s 3 -d 0 -p cbr -e 500 -c 0 -i 50 -a 0 -x {3.0 0.0 16 ------- null}
h -t 0.128 -s 3 -d 0 -p cbr -e 500 -c 0 -i 50 -a 0 -x {3.0 0.0 -1 ------- null}
+ -t 0.13 -s 1 -d 0 -p cbr -e 500 -c 0 -i 78 -a 0 -x {1.0 0.0 26 ------- null}
+ -t 0.13 -s 2 -d 0 -p cbr -e 500 -c 0 -i 79 -a 0 -x {2.0 0.0 26 ------- null}
+ -t 0.13 -s 3 -d 0 -p cbr -e 500 -c 0 -i 80 -a 0 -x {3.0 0.0 26 ------- null}
r -t 0.13 -s 1 -d 0 -p cbr -e 500 -c 0 -i 42 -a 0 -x {1.0 0.0 14 ------- null}
r -t 0.13 -s 2 -d 0 -p cbr -e 500 -c 0 -i 43 -a 0 -x {2.0 0.0 14 ------- null}
r -t 0.13 -s 3 -d 0 -p cbr -e 500 -c 0 -i 44 -a 0 -x {3.0 0.0 14 ------- null}
+ -t 0.135 -s 1 -d 0 -p cbr -e 500 -c 0 -i 81 -a 0 -x {1.0 0.0 27 ------- null}
+ -t 0.135 -s 2 -d 0 -p cbr -e 500 -c 0 -i 82 -a 0 -x {2.0 0.0 27 ------- null}
+ -t 0.135 -s 3 -d 0 -p cbr -e 500 -c 0 -i 83 -a 0 -x {3.0 0.0 27 ------- null}
- -t 0.136 -s 1 -d 0 -p cbr -e 500 -c 0 -i 51 -a 0 -x {1.0 0.0 17 ------- null}
h -t 0.136 -s 1 -d 0 -p cbr -e 500 -c 0 -i 51 -a 0 -x {1.0 0.0 -1 ------- null}
- -t 0.136 -s 2 -d 0 -p cbr -e 500 -c 0 -i 52 -a 0 -x {2.0 0.0 17 ------- null}
h -t 0.136 -s 2 -d 0 -p cbr -e 500 -c 0 -i 52 -a 0 -x {2.0 0.0 -1 ------- null}
- -t 0.136 -s 3 -d 0 -p cbr -e 500 -c 0 -i 53 -a 0 -x {3.0 0.0 17 ------- null}
h -t 0.136 -s 3 -d 0 -p cbr -e 500 -c 0 -i 53 -a 0 -x {3.0 0.0 -1 ------- null}
r -t 0.138 -s 1 -d 0 -p cbr -e 500 -c 0 -i 45 -a 0 -x {1.0 0.0 15 ------- null}
r -t 0.138 -s 2 -d 0 -p cbr -e 500 -c 0 -i 46 -a 0 -x {2.0 0.0 15 ------- null}
r -t 0.138 -s 3 -d 0 -p cbr -e 500 -c 0 -i 47 -a 0 -x {3.0 0.0 15 ------- null}
+ -t 0.14 -s 1 -d 0 -p cbr -e 500 -c 0 -i 84 -a 0 -x {1.0 0.0 28 ------- null}
+ -t 0.14 -s 2 -d 0 -p cbr -e 500 -c 0 -i 85 -a 0 -x {2.0 0.0 28 ------- null}
+ -t 0.14 -s 3 -d 0 -p cbr -e 500 -c 0 -i 86 -a 0 -x {3.0 0.0 28 ------- null}
- -t 0.144 -s 1 -d 0 -p cbr -e 500 -c 0 -i 54 -a 0 -x {1.0 0.0 18 ------- null}
h -t 0.144 -s 1 -d 0 -p cbr -e 500 -c 0 -i 54 -a 0 -x {1.0 0.0 -1 ------- null}
- -t 0.144 -s 2 -d 0 -p cbr -e 500 -c 0 -i 55 -a 0 -x {2.0 0.0 18 ------- null}
h -t 0.144 -s 2 -d 0 -p cbr -e 500 -c 0 -i 55 -a 0 -x {2.0 0.0 -1 ------- null}
- -t 0.144 -s 3 -d 0 -p cbr -e 500 -c 0 -i 56 -a 0 -x {3.0 0.0 18 ------- null}
h -t 0.144 -s 3 -d 0 -p cbr -e 500 -c 0 -i 56 -a 0 -x {3.0 0.0 -1 ------- null}
+ -t 0.145 -s 1 -d 0 -p cbr -e 500 -c 0 -i 87 -a 0 -x {1.0 0.0 29 ------- null}
+ -t 0.145 -s 2 -d 0 -p cbr -e 500 -c 0 -i 88 -a 0 -x {2.0 0.0 29 ------- null}
+ -t 0.145 -s 3 -d 0 -p cbr -e 500 -c 0 -i 89 -a 0 -x {3.0 0.0 29 ------- null}
r -t 0.146 -s 1 -d 0 -p cbr -e 500 -c 0 -i 48 -a 0 -x {1.0 0.0 16 ------- null}
r -t 0.146 -s 2 -d 0 -p cbr -e 500 -c 0 -i 49 -a 0 -x {2.0 0.0 16 ------- null}
r -t 0.146 -s 3 -d 0 -p cbr -e 500 -c 0 -i 50 -a 0 -x {3.0 0.0 16 ------- null}
+ -t 0.15 -s 1 -d 0 -p cbr -e 500 -c 0 -i 90 -a 0 -x {1.0 0.0 30 ------- null}
+ -t 0.15 -s 2 -d 0 -p cbr -e 500 -c 0 -i 91 -a 0 -x {2.0 0.0 30 ------- null}
+ -t 0.15 -s 3 -d 0 -p cbr -e 500 -c 0 -i 92 -a 0 -x {3.0 0.0 30 ------- null}
- -t 0.152 -s 1 -d 0 -p cbr -e 500 -c 0 -i 57 -a 0 -x {1.0 0.0 19 ------- null}
h -t 0.152 -s 1 -d 0 -p cbr -e 500 -c 0 -i 57 -a 0 -x {1.0 0.0 -1 ------- null}
- -t 0.152 -s 2 -d 0 -p cbr -e 500 -c 0 -i 58 -a 0 -x {2.0 0.0 19 ------- null}
h -t 0.152 -s 2 -d 0 -p cbr -e 500 -c 0 -i 58 -a 0 -x {2.0 0.0 -1 ------- null}
- -t 0.152 -s 3 -d 0 -p cbr -e 500 -c 0 -i 59 -a 0 -x {3.0 0.0 19 ------- null}
h -t 0.152 -s 3 -d 0 -p cbr -e 500 -c 0 -i 59 -a 0 -x {3.0 0.0 -1 ------- null}
r -t 0.154 -s 1 -d 0 -p cbr -e 500 -c 0 -i 51 -a 0 -x {1.0 0.0 17 ------- null}
r -t 0.154 -s 2 -d 0 -p cbr -e 500 -c 0 -i 52 -a 0 -x {2.0 0.0 17 ------- null}
r -t 0.154 -s 3 -d 0 -p cbr -e 500 -c 0 -i 53 -a 0 -x {3.0 0.0 17 ------- null}
+ -t 0.155 -s 1 -d 0 -p cbr -e 500 -c 0 -i 93 -a 0 -x {1.0 0.0 31 ------- null}
+ -t 0.155 -s 2 -d 0 -p cbr -e 500 -c 0 -i 94 -a 0 -x {2.0 0.0 31 ------- null}
+ -t 0.155 -s 3 -d 0 -p cbr -e 500 -c 0 -i 95 -a 0 -x {3.0 0.0 31 ------- null}
+ -t 0.16 -s 1 -d 0 -p cbr -e 500 -c 0 -i 96 -a 0 -x {1.0 0.0 32 ------- null}
+ -t 0.16 -s 2 -d 0 -p cbr -e 500 -c 0 -i 97 -a 0 -x {2.0 0.0 32 ------- null}
+ -t 0.16 -s 3 -d 0 -p cbr -e 500 -c 0 -i 98 -a 0 -x {3.0 0.0 32 ------- null}
- -t 0.16 -s 1 -d 0 -p cbr -e 500 -c 0 -i 60 -a 0 -x {1.0 0.0 20 ------- null}
h -t 0.16 -s 1 -d 0 -p cbr -e 500 -c 0 -i 60 -a 0 -x {1.0 0.0 -1 ------- null}
- -t 0.16 -s 2 -d 0 -p cbr -e 500 -c 0 -i 61 -a 0 -x {2.0 0.0 20 ------- null}
h -t 0.16 -s 2 -d 0 -p cbr -e 500 -c 0 -i 61 -a 0 -x {2.0 0.0 -1 ------- null}
- -t 0.16 -s 3 -d 0 -p cbr -e 500 -c 0 -i 62 -a 0 -x {3.0 0.0 20 ------- null}
h -t 0.16 -s 3 -d 0 -p cbr -e 500 -c 0 -i 62 -a 0 -x {3.0 0.0 -1 ------- null}
r -t 0.162 -s 1 -d 0 -p cbr -e 500 -c 0 -i 54 -a 0 -x {1.0 0.0 18 ------- null}
r -t 0.162 -s 2 -d 0 -p cbr -e 500 -c 0 -i 55 -a 0 -x {2.0 0.0 18 ------- null}
r -t 0.162 -s 3 -d 0 -p cbr -e 500 -c 0 -i 56 -a 0 -x {3.0 0.0 18 ------- null}
+ -t 0.165 -s 1 -d 0 -p cbr -e 500 -c 0 -i 99 -a 0 -x {1.0 0.0 33 ------- null}
+ -t 0.165 -s 2 -d 0 -p cbr -e 500 -c 0 -i 100 -a 0 -x {2.0 0.0 33 ------- null}
+ -t 0.165 -s 3 -d 0 -p cbr -e 500 -c 0 -i 101 -a 0 -x {3.0 0.0 33 ------- null}
- -t 0.168 -s 1 -d 0 -p cbr -e 500 -c 0 -i 63 -a 0 -x {1.0 0.0 21 ------- null}
h -t 0.168 -s 1 -d 0 -p cbr -e 500 -c 0 -i 63 -a 0 -x {1.0 0.0 -1 ------- null}
- -t 0.168 -s 2 -d 0 -p cbr -e 500 -c 0 -i 64 -a 0 -x {2.0 0.0 21 ------- null}
h -t 0.168 -s 2 -d 0 -p cbr -e 500 -c 0 -i 64 -a 0 -x {2.0 0.0 -1 ------- null}
- -t 0.168 -s 3 -d 0 -p cbr -e 500 -c 0 -i 65 -a 0 -x {3.0 0.0 21 ------- null}
h -t 0.168 -s 3 -d 0 -p cbr -e 500 -c 0 -i 65 -a 0 -x {3.0 0.0 -1 ------- null}
+ -t 0.17 -s 1 -d 0 -p cbr -e 500 -c 0 -i 102 -a 0 -x {1.0 0.0 34 ------- null}
+ -t 0.17 -s 2 -d 0 -p cbr -e 500 -c 0 -i 103 -a 0 -x {2.0 0.0 34 ------- null}
+ -t 0.17 -s 3 -d 0 -p cbr -e 500 -c 0 -i 104 -a 0 -x {3.0 0.0 34 ------- null}
r -t 0.17 -s 1 -d 0 -p cbr -e 500 -c 0 -i 57 -a 0 -x {1.0 0.0 19 ------- null}
r -t 0.17 -s 2 -d 0 -p cbr -e 500 -c 0 -i 58 -a 0 -x {2.0 0.0 19 ------- null}
r -t 0.17 -s 3 -d 0 -p cbr -e 500 -c 0 -i 59 -a 0 -x {3.0 0.0 19 ------- null}
+ -t 0.175 -s 1 -d 0 -p cbr -e 500 -c 0 -i 105 -a 0 -x {1.0 0.0 35 ------- null}
+ -t 0.175 -s 2 -d 0 -p cbr -e 500 -c 0 -i 106 -a 0 -x {2.0 0.0 35 ------- null}
+ -t 0.175 -s 3 -d 0 -p cbr -e 500 -c 0 -i 107 -a 0 -x {3.0 0.0 35 ------- null}
- -t 0.176 -s 1 -d 0 -p cbr -e 500 -c 0 -i 66 -a 0 -x {1.0 0.0 22 ------- null}
h -t 0.176 -s 1 -d 0 -p cbr -e 500 -c 0 -i 66 -a 0 -x {1.0 0.0 -1 ------- null}
- -t 0.176 -s 2 -d 0 -p cbr -e 500 -c 0 -i 67 -a 0 -x {2.0 0.0 22 ------- null}
h -t 0.176 -s 2 -d 0 -p cbr -e 500 -c 0 -i 67 -a 0 -x {2.0 0.0 -1 ------- null}
- -t 0.176 -s 3 -d 0 -p cbr -e 500 -c 0 -i 68 -a 0 -x {3.0 0.0 22 ------- null}
h -t 0.176 -s 3 -d 0 -p cbr -e 500 -c 0 -i 68 -a 0 -x {3.0 0.0 -1 ------- null}
r -t 0.178 -s 1 -d 0 -p cbr -e 500 -c 0 -i 60 -a 0 -x {1.0 0.0 20 ------- null}
r -t 0.178 -s 2 -d 0 -p cbr -e 500 -c 0 -i 61 -a 0 -x {2.0 0.0 20 ------- null}
r -t 0.178 -s 3 -d 0 -p cbr -e 500 -c 0 -i 62 -a 0 -x {3.0 0.0 20 ------- null}
+ -t 0.18 -s 1 -d 0 -p cbr -e 500 -c 0 -i 108 -a 0 -x {1.0 0.0 36 ------- null}
+ -t 0.18 -s 2 -d 0 -p cbr -e 500 -c 0 -i 109 -a 0 -x {2.0 0.0 36 ------- null}
+ -t 0.18 -s 3 -d 0 -p cbr -e 500 -c 0 -i 110 -a 0 -x {3.0 0.0 36 ------- null}
- -t 0.184 -s 1 -d 0 -p cbr -e 500 -c 0 -i 69 -a 0 -x {1.0 0.0 23 ------- null}
h -t 0.184 -s 1 -d 0 -p cbr -e 500 -c 0 -i 69 -a 0 -x {1.0 0.0 -1 ------- null}
- -t 0.184 -s 2 -d 0 -p cbr -e 500 -c 0 -i 70 -a 0 -x {2.0 0.0 23 ------- null}
h -t 0.184 -s 2 -d 0 -p cbr -e 500 -c 0 -i 70 -a 0 -x {2.0 0.0 -1 ------- null}
- -t 0.184 -s 3 -d 0 -p cbr -e 500 -c 0 -i 71 -a 0 -x {3.0 0.0 23 ------- null}
h -t 0.184 -s 3 -d 0 -p cbr -e 500 -c 0 -i 71 -a 0 -x {3.0 0.0 -1 ------- null}
+ -t 0.185 -s 1 -d 0 -p cbr -e 500 -c 0 -i 111 -a 0 -x {1.0 0.0 37 ------- null}
+ -t 0.185 -s 2 -d 0 -p cbr -e 500 -c 0 -i 112 -a 0 -x {2.0 0.0 37 ------- null}
+ -t 0.185 -s 3 -d 0 -p cbr -e 500 -c 0 -i 113 -a 0 -x {3.0 0.0 37 ------- null}
r -t 0.186 -s 1 -d 0 -p cbr -e 500 -c 0 -i 63 -a 0 -x {1.0 0.0 21 ------- null}
r -t 0.186 -s 2 -d 0 -p cbr -e 500 -c 0 -i 64 -a 0 -x {2.0 0.0 21 ------- null}
r -t 0.186 -s 3 -d 0 -p cbr -e 500 -c 0 -i 65 -a 0 -x {3.0 0.0 21 ------- null}
+ -t 0.19 -s 1 -d 0 -p cbr -e 500 -c 0 -i 114 -a 0 -x {1.0 0.0 38 ------- null}
+ -t 0.19 -s 2 -d 0 -p cbr -e 500 -c 0 -i 115 -a 0 -x {2.0 0.0 38 ------- null}
+ -t 0.19 -s 3 -d 0 -p cbr -e 500 -c 0 -i 116 -a 0 -x {3.0 0.0 38 ------- null}
- -t 0.192 -s 1 -d 0 -p cbr -e 500 -c 0 -i 72 -a 0 -x {1.0 0.0 24 ------- null}
h -t 0.192 -s 1 -d 0 -p cbr -e 500 -c 0 -i 72 -a 0 -x {1.0 0.0 -1 ------- null}
- -t 0.192 -s 2 -d 0 -p cbr -e 500 -c 0 -i 73 -a 0 -x {2.0 0.0 24 ------- null}
h -t 0.192 -s 2 -d 0 -p cbr -e 500 -c 0 -i 73 -a 0 -x {2.0 0.0 -1 ------- null}
- -t 0.192 -s 3 -d 0 -p cbr -e 500 -c 0 -i 74 -a 0 -x {3.0 0.0 24 ------- null}
h -t 0.192 -s 3 -d 0 -p cbr -e 500 -c 0 -i 74 -a 0 -x {3.0 0.0 -1 ------- null}
r -t 0.194 -s 1 -d 0 -p cbr -e 500 -c 0 -i 66 -a 0 -x {1.0 0.0 22 ------- null}
r -t 0.194 -s 2 -d 0 -p cbr -e 500 -c 0 -i 67 -a 0 -x {2.0 0.0 22 ------- null}
r -t 0.194 -s 3 -d 0 -p cbr -e 500 -c 0 -i 68 -a 0 -x {3.0 0.0 22 ------- null}
+ -t 0.195 -s 1 -d 0 -p cbr -e 500 -c 0 -i 117 -a 0 -x {1.0 0.0 39 ------- null}
+ -t 0.195 -s 2 -d 0 -p cbr -e 500 -c 0 -i 118 -a 0 -x {2.0 0.0 39 ------- null}
+ -t 0.195 -s 3 -d 0 -p cbr -e 500 -c 0 -i 119 -a 0 -x {3.0 0.0 39 ------- null}
+ -t 0.2 -s 1 -d 0 -p cbr -e 500 -c 0 -i 120 -a 0 -x {1.0 0.0 40 ------- null}
+ -t 0.2 -s 2 -d 0 -p cbr -e 500 -c 0 -i 121 -a 0 -x {2.0 0.0 40 ------- null}
+ -t 0.2 -s 3 -d 0 -p cbr -e 500 -c 0 -i 122 -a 0 -x {3.0 0.0 40 ------- null}
- -t 0.2 -s 1 -d 0 -p cbr -e 500 -c 0 -i 75 -a 0 -x {1.0 0.0 25 ------- null}
h -t 0.2 -s 1 -d 0 -p cbr -e 500 -c 0 -i 75 -a 0 -x {1.0 0.0 -1 ------- null}
- -t 0.2 -s 2 -d 0 -p cbr -e 500 -c 0 -i 76 -a 0 -x {2.0 0.0 25 ------- null}
h -t 0.2 -s 2 -d 0 -p cbr -e 500 -c 0 -i 76 -a 0 -x {2.0 0.0 -1 ------- null}
- -t 0.2 -s 3 -d 0 -p cbr -e 500 -c 0 -i 77 -a 0 -x {3.0 0.0 25 ------- null}
h -t 0.2 -s 3 -d 0 -p cbr -e 500 -c 0 -i 77 -a 0 -x {3.0 0.0 -1 ------- null}
r -t 0.202 -s 1 -d 0 -p cbr -e 500 -c 0 -i 69 -a 0 -x {1.0 0.0 23 ------- null}
r -t 0.202 -s 2 -d 0 -p cbr -e 500 -c 0 -i 70 -a 0 -x {2.0 0.0 23 ------- null}
r -t 0.202 -s 3 -d 0 -p cbr -e 500 -c 0 -i 71 -a 0 -x {3.0 0.0 23 ------- null}
+ -t 0.205 -s 1 -d 0 -p cbr -e 500 -c 0 -i 123 -a 0 -x {1.0 0.0 41 ------- null}
+ -t 0.205 -s 2 -d 0 -p cbr -e 500 -c 0 -i 124 -a 0 -x {2.0 0.0 41 ------- null}
+ -t 0.205 -s 3 -d 0 -p cbr -e 500 -c 0 -i 125 -a 0 -x {3.0 0.0 41 ------- null}
- -t 0.208 -s 1 -d 0 -p cbr -e 500 -c 0 -i 78 -a 0 -x {1.0 0.0 26 ------- null}
h -t 0.208 -s 1 -d 0 -p cbr -e 500 -c 0 -i 78 -a 0 -x {1.0 0.0 -1 ------- null}
- -t 0.208 -s 2 -d 0 -p cbr -e 500 -c 0 -i 79 -a 0 -x {2.0 0.0 26 ------- null}
h -t 0.208 -s 2 -d 0 -p cbr -e 500 -c 0 -i 79 -a 0 -x {2.0 0.0 -1 ------- null}
- -t 0.208 -s 3 -d 0 -p cbr -e 500 -c 0 -i 80 -a 0 -x {3.0 0.0 26 ------- null}
h -t 0.208 -s 3 -d 0 -p cbr -e 500 -c 0 -i 80 -a 0 -x {3.0 0.0 -1 ------- null}
+ -t 0.21 -s 1 -d 0 -p cbr -e 500 -c 0 -i 126 -a 0 -x {1.0 0.0 42 ------- null}
+ -t 0.21 -s 2 -d 0 -p cbr -e 500 -c 0 -i 127 -a 0 -x {2.0 0.0 42 ------- null}
+ -t 0.21 -s 3 -d 0 -p cbr -e 500 -c 0 -i 128 -a 0 -x {3.0 0.0 42 ------- null}