+ 0 1 0 cbr 500 ------- 0 1.0 0.0 0 0
- 0 1 0 cbr 500 ------- 0 1.0 0.0 0 0
+ 0 2 0 cbr 500 ------- 0 2.0 0.0 0 1
- 0 2 0 cbr 500 ------- 0 2.0 0.0 0 1
+ 0 3 0 cbr 500 ------- 0 3.0 0.0 0 2
- 0 3 0 cbr 500 ------- 0 3.0 0.0 0 2
+ 0.005 1 0 cbr 500 ------- 0 1.0 0.0 1 3
+ 0.005 2 0 cbr 500 ------- 0 2.0 0.0 1 4
+ 0.005 3 0 cbr 500 ------- 0 3.0 0.0 1 5
- 0.008 1 0 cbr 500 ------- 0 1.0 0.0 1 3
- 0.008 2 0 cbr 500 ------- 0 2.0 0.0 1 4
- 0.008 3 0 cbr 500 ------- 0 3.0 0.0 1 5
+ 0.01 1 0 cbr 500 ------- 0 1.0 0.0 2 6
+ 0.01 2 0 cbr 500 ------- 0 2.0 0.0 2 7
+ 0.01 3 0 cbr 500 ------- 0 3.0 0.0 2 8
+ 0.015 1 0 cbr 500 ------- 0 1.0 0.0 3 9
+ 0.015 2 0 cbr 500 ------- 0 2.0 0.0 3 10
+ 0.015 3 0 cbr 500 ------- 0 3.0 0.0 3 11
- 0.016 1 0 cbr 500 ------- 0 1.0 0.0 2 6
- 0.016 2 0 cbr 500 ------- 0 2.0 0.0 2 7
- 0.016 3 0 cbr 500 ------- 0 3.0 0.0 2 8
r 0.018 1 0 cbr 500 ------- 0 1.0 0.0 0 0
r 0.018 2 0 cbr 500 ------- 0 2.0 0.0 0 1
r 0.018 3 0 cbr 500 ------- 0 3.0 0.0 0 2
+ 0.02 1 0 cbr 500 ------- 0 1.0 0.0 4 12
+ 0.02 2 0 cbr 500 ------- 0 2.0 0.0 4 13
+ 0.02 3 0 cbr 500 ------- 0 3.0 0.0 4 14
- 0.024 1 0 cbr 500 ------- 0 1.0 0.0 3 9
- 0.024 2 0 cbr 500 ------- 0 2.0 0.0 3 10
- 0.024 3 0 cbr 500 ------- 0 3.0 0.0 3 11
+ 0.025 1 0 cbr 500 ------- 0 1.0 0.0 5 15
+ 0.025 2 0 cbr 500 ------- 0 2.0 0.0 5 16
+ 0.025 3 0 cbr 500 ------- 0 3.0 0.0 5 17
r 0.026 1 0 cbr 500 ------- 0 1.0 0.0 1 3
r 0.026 2 0 cbr 500 ------- 0 2.0 0.0 1 4
r 0.026 3 0 cbr 500 ------- 0 3.0 0.0 1 5
+ 0.03 1 0 cbr 500 ------- 0 1.0 0.0 6 18
+ 0.03 2 0 cbr 500 ------- 0 2.0 0.0 6 19
+ 0.03 3 0 cbr 500 ------- 0 3.0 0.0 6 20
- 0.032 1 0 cbr 500 ------- 0 1.0 0.0 4 12
- 0.032 2 0 cbr 500 ------- 0 2.0 0.0 4 13
- 0.032 3 0 cbr 500 ------- 0 3.0 0.0 4 14
r 0.034 1 0 cbr 500 ------- 0 1.0 0.0 2 6
r 0.034 2 0 cbr 500 ------- 0 2.0 0.0 2 7
r 0.034 3 0 cbr 500 ------- 0 3.0 0.0 2 8
+ 0.035 1 0 cbr 500 ------- 0 1.0 0.0 7 21
+ 0.035 2 0 cbr 500 ------- 0 2.0 0.0 7 22
+ 0.035 3 0 cbr 500 ------- 0 3.0 0.0 7 23
- 0.04 1 0 cbr 500 ------- 0 1.0 0.0 5 15
- 0.04 2 0 cbr 500 ------- 0 2.0 0.0 5 16
- 0.04 3 0 cbr 500 ------- 0 3.0 0.0 5 17
+ 0.04 1 0 cbr 500 ------- 0 1.0 0.0 8 24
+ 0.04 2 0 cbr 500 ------- 0 2.0 0.0 8 25
+ 0.04 3 0 cbr 500 ------- 0 3.0 0.0 8 26
r 0.042 1 0 cbr 500 ------- 0 1.0 0.0 3 9
r 0.042 2 0 cbr 500 ------- 0 2.0 0.0 3 10
r 0.042 3 0 cbr 500 ------- 0 3.0 0.0 3 11
+ 0.045 1 0 cbr 500 ------- 0 1.0 0.0 9 27
+ 0.045 2 0 cbr 500 ------- 0 2.0 0.0 9 28
+ 0.045 3 0 cbr 500 ------- 0 3.0 0.0 9 29
- 0.048 1 0 cbr 500 ------- 0 1.0 0.0 6 18
- 0.048 2 0 cbr 500 ------- 0 2.0 0.0 6 19
- 0.048 3 0 cbr 500 ------- 0 3.0 0.0 6 20
+ 0.05 1 0 cbr 500 ------- 0 1.0 0.0 10 30
+ 0.05 2 0 cbr 500 ------- 0 2.0 0.0 10 31
+ 0.05 3 0 cbr 500 ------- 0 3.0 0.0 10 32
r 0.05 1 0 cbr 500 ------- 0 1.0 0.0 4 12
r 0.05 2 0 cbr 500 ------- 0 2.0 0.0 4 13
r 0.05 3 0 cbr 500 ------- 0 3.0 0.0 4 14
+ 0.055 1 0 cbr 500 ------- 0 1.0 0.0 11 33
+ 0.055 2 0 cbr 500 ------- 0 2.0 0.0 11 34
+ 0.055 3 0 cbr 500 ------- 0 3.0 0.0 11 35
- 0.056 1 0 cbr 500 ------- 0 1.0 0.0 7 21
- 0.056 2 0 cbr 500 ------- 0 2.0 0.0 7 22
- 0.056 3 0 cbr 500 ------- 0 3.0 0.0 7 23
r 0.058 1 0 cbr 500 ------- 0 1.0 0.0 5 15
r 0.058 2 0 cbr 500 ------- 0 2.0 0.0 5 16
r 0.058 3 0 cbr 500 ------- 0 3.0 0.0 5 17
+ 0.06 1 0 cbr 500 ------- 0 1.0 0.0 12 36
+ 0.06 2 0 cbr 500 ------- 0 2.0 0.0 12 37
+ 0.06 3 0 cbr 500 ------- 0 3.0 0.0 12 38
- 0.064 1 0 cbr 500 ------- 0 1.0 0.0 8 24
- 0.064 2 0 cbr 500 ------- 0 2.0 0.0 8 25
- 0.064 3 0 cbr 500 ------- 0 3.0 0.0 8 26
+ 0.065 1 0 cbr 500 ------- 0 1.0 0.0 13 39
+ 0.065 2 0 cbr 500 ------- 0 2.0 0.0 13 40
+ 0.065 3 0 cbr 500 ------- 0 3.0 0.0 13 41
r 0.066 1 0 cbr 500 ------- 0 1.0 0.0 6 18
r 0.066 2 0 cbr 500 ------- 0 2.0 0.0 6 19
r 0.066 3 0 cbr 500 ------- 0 3.0 0.0 6 20
+ 0.07 1 0 cbr 500 ------- 0 1.0 0.0 14 42
+ 0.07 2 0 cbr 500 ------- 0 2.0 0.0 14 43
+ 0.07 3 0 cbr 500 ------- 0 3.0 0.0 14 44
- 0.072 1 0 cbr 500 ------- 0 1.0 0.0 9 27
- 0.072 2 0 cbr 500 ------- 0 2.0 0.0 9 28
- 0.072 3 0 cbr 500 ------- 0 3.0 0.0 9 29
r 0.074 1 0 cbr 500 ------- 0 1.0 0.0 7 21
r 0.074 2 0 cbr 500 ------- 0 2.0 0.0 7 22
r 0.074 3 0 cbr 500 ------- 0 3.0 0.0 7 23
+ 0.075 1 0 cbr 500 ------- 0 1.0 0.0 15 45
+ 0.075 2 0 cbr 500 ------- 0 2.0 0.0 15 46
+ 0.075 3 0 cbr 500 ------- 0 3.0 0.0 15 47
+ 0.08 1 0 cbr 500 ------- 0 1.0 0.0 16 48
+ 0.08 2 0 cbr 500 ------- 0 2.0 0.0 16 49
+ 0.08 3 0 cbr 500 ------- 0 3.0 0.0 16 50
- 0.08 1 0 cbr 500 ------- 0 1.0 0.0 10 30
- 0.08 2 0 cbr 500 ------- 0 2.0 0.0 10 31
- 0.08 3 0 cbr 500 ------- 0 3.0 0.0 10 32
r 0.082 1 0 cbr 500 ------- 0 1.0 0.0 8 24
r 0.082 2 0 cbr 500 ------- 0 2.0 0.0 8 25
r 0.082 3 0 cbr 500 ------- 0 3.0 0.0 8 26
+ 0.085 1 0 cbr 500 ------- 0 1.0 0.0 17 51
+ 0.085 2 0 cbr 500 ------- 0 2.0 0.0 17 52
+ 0.085 3 0 cbr 500 ------- 0 3.0 0.0 17 53
- 0.088 1 0 cbr 500 ------- 0 1.0 0.0 11 33
- 0.088 2 0 cbr 500 ------- 0 2.0 0.0 11 34
- 0.088 3 0 cbr 500 ------- 0 3.0 0.0 11 35
r 0.09 1 0 cbr 500 ------- 0 1.0 0.0 9 27
r 0.09 2 0 cbr 500 ------- 0 2.0 0.0 9 28
r 0.09 3 0 cbr 500 ------- 0 3.0 0.0 9 29
+ 0.09 1 0 cbr 500 ------- 0 1.0 0.0 18 54
+ 0.09 2 0 cbr 500 ------- 0 2.0 0.0 18 55
+ 0.09 3 0 cbr 500 ------- 0 3.0 0.0 18 56
+ 0.095 1 0 cbr 500 ------- 0 1.0 0.0 19 57
+ 0.095 2 0 cbr 500 ------- 0 2.0 0.0 19 58
+ 0.095 3 0 cbr 500 ------- 0 3.0 0.0 19 59
- 0.096 1 0 cbr 500 ------- 0 1.0 0.0 12 36
- 0.096 2 0 cbr 500 ------- 0 2.0 0.0 12 37
- 0.096 3 0 cbr 500 ------- 0 3.0 0.0 12 38
r 0.098 1 0 cbr 500 ------- 0 1.0 0.0 10 30
r 0.098 2 0 cbr 500 ------- 0 2.0 0.0 10 31
r 0.098 3 0 cbr 500 ------- 0 3.0 0.0 10 32
+ 0.1 1 0 cbr 500 ------- 0 1.0 0.0 20 60
+ 0.1 2 0 cbr 500 ------- 0 2.0 0.0 20 61
+ 0.1 3 0 cbr 500 ------- 0 3.0 0.0 20 62
- 0.104 1 0 cbr 500 ------- 0 1.0 0.0 13 39
- 0.104 2 0 cbr 500 ------- 0 2.0 0.0 13 40
- 0.104 3 0 cbr 500 ------- 0 3.0 0.0 13 41
+ 0.105 1 0 cbr 500 ------- 0 1.0 0.0 21 63
+ 0.105 2 0 cbr 500 ------- 0 2.0 0.0 21 64
+ 0.105 3 0 cbr 500 ------- 0 3.0 0.0 21 65
r 0.106 1 0 cbr 500 ------- 0 1.0 0.0 11 33
r 0.106 2 0 cbr 500 ------- 0 2.0 0.0 11 34
r 0.106 3 0 cbr 500 ------- 0 3.0 0.0 11 35
+ 0.11 1 0 cbr 500 ------- 0 1.0 0.0 22 66
+ 0.11 2 0 cbr 500 ------- 0 2.0 0.0 22 67
+ 0.11 3 0 cbr 500 ------- 0 3.0 0.0 22 68
- 0.112 1 0 cbr 500 ------- 0 1.0 0.0 14 42
- 0.112 2 0 cbr 500 ------- 0 2.0 0.0 14 43
- 0.112 3 0 cbr 500 ------- 0 3.0 0.0 14 44
r 0.114 1 0 cbr 500 ------- 0 1.0 0.0 12 36
r 0.114 2 0 cbr 500 ------- 0 2.0 0.0 12 37
r 0.114 3 0 cbr 500 ------- 0 3.0 0.0 12 38
+ 0.115 1 0 cbr 500 ------- 0 1.0 0.0 23 69
+ 0.115 2 0 cbr 500 ------- 0 2.0 0.0 23 70
+ 0.115 3 0 cbr 500 ------- 0 3.0 0.0 23 71
+ 0.12 1 0 cbr 500 ------- 0 1.0 0.0 24 72
+ 0.12 2 0 cbr 500 ------- 0 2.0 0.0 24 73
+ 0.12 3 0 cbr 500 ------- 0 3.0 0.0 24 74
- 0.12 1 0 cbr 500 ------- 0 1.0 0.0 15 45
- 0.12 2 0 cbr 500 ------- 0 2.0 0.0 15 46
- 0.12 3 0 cbr 500 ------- 0 3.0 0.0 15 47
r 0.122 1 0 cbr 500 ------- 0 1.0 0.0 13 39
r 0.122 2 0 cbr 500 ------- 0 2.0 0.0 13 40
r 0.122 3 0 cbr 500 ------- 0 3.0 0.0 13 41
+ 0.125 1 0 cbr 500 ------- 0 1.0 0.0 25 75
+ 0.125 2 0 cbr 500 ------- 0 2.0 0.0 25 76
+ 0.125 3 0 cbr 500 ------- 0 3.0 0.0 25 77
- 0.128 1 0 cbr 500 ------- 0 1.0 0.0 16 48
- 0.128 2 0 cbr 500 ------- 0 2.0 0.0 16 49
- 0.128 3 0 cbr 500 ------- 0 3.0 0.0 16 50
+ 0.13 1 0 cbr 500 ------- 0 1.0 0.0 26 78
+ 0.13 2 0 cbr 500 ------- 0 2.0 0.0 26 79
+ 0.13 3 0 cbr 500 ------- 0 3.0 0.0 26 80
r 0.13 1 0 cbr 500 ------- 0 1.0 0.0 14 42
r 0.13 2 0 cbr 500 ------- 0 2.0 0.0 14 43
r 0.13 3 0 cbr 500 ------- 0 3.0 0.0 14 44
+ 0.135 1 0 cbr 500 ------- 0 1.0 0.0 27 81
+ 0.135 2 0 cbr 500 ------- 0 2.0 0.0 27 82
+ 0.135 3 0 cbr 500 ------- 0 3.0 0.0 27 83
- 0.136 1 0 cbr 500 ------- 0 1.0 0.0 17 51
- 0.136 2 0 cbr 500 ------- 0 2.0 0.0 17 52
- 0.136 3 0 cbr 500 ------- 0 3.0 0.0 17 53
r 0.138 1 0 cbr 500 ------- 0 1.0 0.0 15 45
r 0.138 2 0 cbr 500 ------- 0 2.0 0.0 15 46
r 0.138 3 0 cbr 500 ------- 0 3.0 0.0 15 47
+ 0.14 1 0 cbr 500 ------- 0 1.0 0.0 28 84
+ 0.14 2 0 cbr 500 ------- 0 2.0 0.0 28 85
+ 0.14 3 0 cbr 500 ------- 0 3.0 0.0 28 86
- 0.144 1 0 cbr 500 ------- 0 1.0 0.0 18 54
- 0.144 2 0 cbr 500 ------- 0 2.0 0.0 18 55
- 0.144 3 0 cbr 500 ------- 0 3.0 0.0 18 56
+ 0.145 1 0 cbr 500 ------- 0 1.0 0.0 29 87
+ 0.145 2 0 cbr 500 ------- 0 2.0 0.0 29 88
+ 0.145 3 0 cbr 500 ------- 0 3.0 0.0 29 89
r 0.146 1 0 cbr 500 ------- 0 1.0 0.0 16 48
r 0.146 2 0 cbr 500 ------- 0 2.0 0.0 16 49
r 0.146 3 0 cbr 500 ------- 0 3.0 0.0 16 50
+ 0.15 1 0 cbr 500 ------- 0 1.0 0.0 30 90
+ 0.15 2 0 cbr 500 ------- 0 2.0 0.0 30 91
+ 0.15 3 0 cbr 500 ------- 0 3.0 0.0 30 92
- 0.152 1 0 cbr 500 ------- 0 1.0 0.0 19 57
- 0.152 2 0 cbr 500 ------- 0 2.0 0.0 19 58
- 0.152 3 0 cbr 500 ------- 0 3.0 0.0 19 59
r 0.154 1 0 cbr 500 ------- 0 1.0 0.0 17 51
r 0.154 2 0 cbr 500 ------- 0 2.0 0.0 17 52
r 0.154 3 0 cbr 500 ------- 0 3.0 0.0 17 53
+ 0.155 1 0 cbr 500 ------- 0 1.0 0.0 31 93
+ 0.155 2 0 cbr 500 ------- 0 2.0 0.0 31 94
+ 0.155 3 0 cbr 500 ------- 0 3.0 0.0 31 95
+ 0.16 1 0 cbr 500 ------- 0 1.0 0.0 32 96
+ 0.16 2 0 cbr 500 ------- 0 2.0 0.0 32 97
+ 0.16 3 0 cbr 500 ------- 0 3.0 0.0 32 98
- 0.16 1 0 cbr 500 ------- 0 1.0 0.0 20 60
- 0.16 2 0 cbr 500 ------- 0 2.0 0.0 20 61
- 0.16 3 0 cbr 500 ------- 0 3.0 0.0 20 62
r 0.162 1 0 cbr 500 ------- 0 1.0 0.0 18 54
r 0.162 2 0 cbr 500 ------- 0 2.0 0.0 18 55
r 0.162 3 0 cbr 500 ------- 0 3.0 0.0 18 56
+ 0.165 1 0 cbr 500 ------- 0 1.0 0.0 33 99
+ 0.165 2 0 cbr 500 ------- 0 2.0 0.0 33 100
+ 0.165 3 0 cbr 500 ------- 0 3.0 0.0 33 101
- 0.168 1 0 cbr 500 ------- 0 1.0 0.0 21 63
- 0.168 2 0 cbr 500 ------- 0 2.0 0.0 21 64
- 0.168 3 0 cbr 500 ------- 0 3.0 0.0 21 65
+ 0.17 1 0 cbr 500 ------- 0 1.0 0.0 34 102
+ 0.17 2 0 cbr 500 ------- 0 2.0 0.0 34 103
+ 0.17 3 0 cbr 500 ------- 0 3.0 0.0 34 104
r 0.17 1 0 cbr 500 ------- 0 1.0 0.0 19 57
r 0.17 2 0 cbr 500 ------- 0 2.0 0.0 19 58
r 0.17 3 0 cbr 500 ------- 0 3.0 0.0 19 59
+ 0.175 1 0 cbr 500 ------- 0 1.0 0.0 35 105
+ 0.175 2 0 cbr 500 ------- 0 2.0 0.0 35 106
+ 0.175 3 0 cbr 500 ------- 0 3.0 0.0 35 107
- 0.176 1 0 cbr 500 ------- 0 1.0 0.0 22 66
- 0.176 2 0 cbr 500 ------- 0 2.0 0.0 22 67
- 0.176 3 0 cbr 500 ------- 0 3.0 0.0 22 68
r 0.178 1 0 cbr 500 ------- 0 1.0 0.0 20 60
r 0.178 2 0 cbr 500 ------- 0 2.0 0.0 20 61
r 0.178 3 0 cbr 500 ------- 0 3.0 0.0 20 62
+ 0.18 1 0 cbr 500 ------- 0 1.0 0.0 36 108
+ 0.18 2 0 cbr 500 ------- 0 2.0 0.0 36 109
+ 0.18 3 0 cbr 500 ------- 0 3.0 0.0 36 110
- 0.184 1 0 cbr 500 ------- 0 1.0 0.0 23 69
- 0.184 2 0 cbr 500 ------- 0 2.0 0.0 23 70
- 0.184 3 0 cbr 500 ------- 0 3.0 0.0 23 71
+ 0.185 1 0 cbr 500 ------- 0 1.0 0.0 37 111
+ 0.185 2 0 cbr 500 ------- 0 2.0 0.0 37 112
+ 0.185 3 0 cbr 500 ------- 0 3.0 0.0 37 113
r 0.186 1 0 cbr 500 ------- 0 1.0 0.0 21 63
r 0.186 2 0 cbr 500 ------- 0 2.0 0.0 21 64
r 0.186 3 0 cbr 500 ------- 0 3.0 0.0 21 65
+ 0.19 1 0 cbr 500 ------- 0 1.0 0.0 38 114
+ 0.19 2 0 cbr 500 ------- 0 2.0 0.0 38 115
+ 0.19 3 0 cbr 500 ------- 0 3.0 0.0 38 116
- 0.192 1 0 cbr 500 ------- 0 1.0 0.0 24 72
- 0.192 2 0 cbr 500 ------- 0 2.0 0.0 24 73
- 0.192 3 0 cbr 500 ------- 0 3.0 0.0 24 74
r 0.194 1 0 cbr 500 ------- 0 1.0 0.0 22 66
r 0.194 2 0 cbr 500 ------- 0 2.0 0.0 22 67
r 0.194 3 0 cbr 500 ------- 0 3.0 0.0 22 68
+ 0.195 1 0 cbr 500 ------- 0 1.0 0.0 39 117
+ 0.195 2 0 cbr 500 ------- 0 2.0 0.0 39 118
+ 0.195 3 0 cbr 500 ------- 0 3.0 0.0 39 119
+ 0.2 1 0 cbr 500 ------- 0 1.0 0.0 40 120
+ 0.2 2 0 cbr 500 ------- 0 2.0 0.0 40 121
+ 0.2 3 0 cbr 500 ------- 0 3.0 0.0 40 122
- 0.2 1 0 cbr 500 ------- 0 1.0 0.0 25 75
- 0.2 2 0 cbr 500 ------- 0 2.0 0.0 25 76
- 0.2 3 0 cbr 500 ------- 0 3.0 0.0 25 77
r 0.202 1 0 cbr 500 ------- 0 1.0 0.0 23 69
r 0.202 2 0 cbr 500 ------- 0 2.0 0.0 23 70
r 0.202 3 0 cbr 500 ------- 0 3.0 0.0 23 71
+ 0.205 1 0 cbr 500 ------- 0 1.0 0.0 41 123
+ 0.205 2 0 cbr 500 ------- 0 2.0 0.0 41 124
+ 0.205 3 0 cbr 500 ------- 0 3.0 0.0 41 125
- 0.208 1 0 cbr 500 ------- 0 1.0 0.0 26 78
- 0.208 2 0 cbr 500 ------- 0 2.0 0.0 26 79
- 0.208 3 0 cbr 500 ------- 0 3.0 0.0 26 80
+ 0.21 1 0 cbr 500 ------- 0 1.0 0.0 42 126
+ 0.21 2 0 cbr 500 ------- 0 2.0 0.0 42 127
+ 0.21 3 0 cbr 500 ------- 0 3.0 0.0 42 128
r 0.21 1 0 cbr 500 ------- 0 1.0 0.0 24 72
r 0.21 2 0 cbr 500 ------- 0 2.0 0.0 24 73
r 0.21 3 0 cbr 500 ------- 0 3.0 0.0 24 74
+ 0.215 1 0 cbr 500 ------- 0 1.0 0.0 43 129
+ 0.215 2 0 cbr 500 ------- 0 2.0 0.0 43 130
+ 0.215 3 0 cbr 500 ------- 0 3.0 0.0 43 131
- 0.216 1 0 cbr 500 ------- 0 1.0 0.0 27 81
- 0.216 2 0 cbr 500 ------- 0 2.0 0.0 27 82
- 0.216 3 0 cbr 500 ------- 0 3.0 0.0 27 83
r 0.218 1 0 cbr 500 ------- 0 1.0 0.0 25 75
r 0.218 2 0 cbr 500 ------- 0 2.0 0.0 25 76
r 0.218 3 0 cbr 500 ------- 0 3.0 0.0 25 77
+ 0.22 1 0 cbr 500 ------- 0 1.0 0.0 44 132
+ 0.22 2 0 cbr 500 ------- 0 2.0 0.0 44 133
+ 0.22 3 0 cbr 500 ------- 0 3.0 0.0 44 134
- 0.224 1 0 cbr 500 ------- 0 1.0 0.0 28 84
- 0.224 2 0 cbr 500 ------- 0 2.0 0.0 28 85
- 0.224 3 0 cbr 500 ------- 0 3.0 0.0 28 86
+ 0.225 1 0 cbr 500 ------- 0 1.0 0.0 45 135
+ 0.225 2 0 cbr 500 ------- 0 2.0 0.0 45 136
+ 0.225 3 0 cbr 500 ------- 0 3.0 0.0 45 137
r 0.226 1 0 cbr 500 ------- 0 1.0 0.0 26 78
r 0.226 2 0 cbr 500 ------- 0 2.0 0.0 26 79
r 0.226 3 0 cbr 500 ------- 0 3.0 0.0 26 80
+ 0.23 1 0 cbr 500 ------- 0 1.0 0.0 46 138
+ 0.23 2 0 cbr 500 ------- 0 2.0 0.0 46 139
+ 0.23 3 0 cbr 500 ------- 0 3.0 0.0 46 140
- 0.232 1 0 cbr 500 ------- 0 1.0 0.0 29 87
- 0.232 2 0 cbr 500 ------- 0 2.0 0.0 29 88
- 0.232 3 0 cbr 500 ------- 0 3.0 0.0 29 89
r 0.234 1 0 cbr 500 ------- 0 1.0 0.0 27 81
r 0.234 2 0 cbr 500 ------- 0 2.0 0.0 27 82
r 0.234 3 0 cbr 500 ------- 0 3.0 0.0 27 83
+ 0.235 1 0 cbr 500 ------- 0 1.0 0.0 47 141
+ 0.235 2 0 cbr 500 ------- 0 2.0 0.0 47 142
+ 0.235 3 0 cbr 500 ------- 0 3.0 0.0 47 143
+ 0.24 1 0 cbr 500 ------- 0 1.0 0.0 48 144
+ 0.24 2 0 cbr 500 ------- 0 2.0 0.0 48 145
+ 0.24 3 0 cbr 500 ------- 0 3.0 0.0 48 146
- 0.24 1 0 cbr 500 ------- 0 1.0 0.0 30 90
- 0.24 2 0 cbr 500 ------- 0 2.0 0.0 30 91
- 0.24 3 0 cbr 500 ------- 0 3.0 0.0 30 92
r 0.242 1 0 cbr 500 ------- 0 1.0 0.0 28 84
r 0.242 2 0 cbr 500 ------- 0 2.0 0.0 28 85
r 0.242 3 0 cbr 500 ------- 0 3.0 0.0 28 86
+ 0.245 1 0 cbr 500 ------- 0 1.0 0.0 49 147
+ 0.245 2 0 cbr 500 ------- 0 2.0 0.0 49 148
+ 0.245 3 0 cbr 500 ------- 0 3.0 0.0 49 149
- 0.248 1 0 cbr 500 ------- 0 1.0 0.0 31 93
- 0.248 2 0 cbr 500 ------- 0 2.0 0.0 31 94
- 0.248 3 0 cbr 500 ------- 0 3.0 0.0 31 95
+ 0.25 1 0 cbr 500 ------- 0 1.0 0.0 50 150
+ 0.25 2 0 cbr 500 ------- 0 2.0 0.0 50 151
+ 0.25 3 0 cbr 500 ------- 0 3.0 0.0 50 152
r 0.25 1 0 cbr 500 ------- 0 1.0 0.0 29 87
r 0.25 2 0 cbr 500 ------- 0 2.0 0.0 29 88
r 0.25 3 0 cbr 500 ------- 0 3.0 0.0 29 89
+ 0.255 1 0 cbr 500 ------- 0 1.0 0.0 51 153
+ 0.255 2 0 cbr 500 ------- 0 2.0 0.0 51 154
+ 0.255 3 0 cbr 500 ------- 0 3.0 0.0 51 155
- 0.256 1 0 cbr 500 ------- 0 1.0 0.0 32 96
- 0.256 2 0 cbr 500 ------- 0 2.0 0.0 32 97
- 0.256 3 0 cbr 500 ------- 0 3.0 0.0 32 98
r 0.258 1 0 cbr 500 ------- 0 1.0 0.0 30 90
r 0.258 2 0 cbr 500 ------- 0 2.0 0.0 30 91
r 0.258 3 0 cbr 500 ------- 0 3.0 0.0 30 92
+ 0.26 1 0 cbr 500 ------- 0 1.0 0.0 52 156
+ 0.26 2 0 cbr 500 ------- 0 2.0 0.0 52 157
+ 0.26 3 0 cbr 500 ------- 0 3.0 0.0 52 158
- 0.264 1 0 cbr 500 ------- 0 1.0 0.0 33 99
- 0.264 2 0 cbr 500 ------- 0 2.0 0.0 33 100
- 0.264 3 0 cbr 500 ------- 0 3.0 0.0 33 101
+ 0.265 1 0 cbr 500 ------- 0 1.0 0.0 53 159
+ 0.265 2 0 cbr 500 ------- 0 2.0 0.0 53 160
+ 0.265 3 0 cbr 500 ------- 0 3.0 0.0 53 161
r 0.266 1 0 cbr 500 ------- 0 1.0 0.0 31 93
r 0.266 2 0 cbr 500 ------- 0 2.0 0.0 31 94
r 0.266 3 0 cbr 500 ------- 0 3.0 0.0 31 95
+ 0.27 1 0 cbr 500 ------- 0 1.0 0.0 54 162
+ 0.27 2 0 cbr 500 ------- 0 2.0 0.0 54 163
+ 0.27 3 0 cbr 500 ------- 0 3.0 0.0 54 164
- 0.272 1 0 cbr 500 ------- 0 1.0 0.0 34 102
- 0.272 2 0 cbr 500 ------- 0 2.0 0.0 34 103
- 0.272 3 0 cbr 500 ------- 0 3.0 0.0 34 104
r 0.274 1 0 cbr 500 ------- 0 1.0 0.0 32 96
r 0.274 2 0 cbr 500 ------- 0 2.0 0.0 32 97
r 0.274 3 0 cbr 500 ------- 0 3.0 0.0 32 98
+ 0.275 1 0 cbr 500 ------- 0 1.0 0.0 55 165
+ 0.275 2 0 cbr 500 ------- 0 2.0 0.0 55 166
+ 0.275 3 0 cbr 500 ------- 0 3.0 0.0 55 167
+ 0.28 1 0 cbr 500 ------- 0 1.0 0.0 56 168
+ 0.28 2 0 cbr 500 ------- 0 2.0 0.0 56 169
+ 0.28 3 0 cbr 500 ------- 0 3.0 0.0 56 170
- 0.28 1 0 cbr 500 ------- 0 1.0 0.0 35 105
- 0.28 2 0 cbr 500 ------- 0 2.0 0.0 35 106
- 0.28 3 0 cbr 500 ------- 0 3.0 0.0 35 107
r 0.282 1 0 cbr 500 ------- 0 1.0 0.0 33 99
r 0.282 2 0 cbr 500 ------- 0 2.0 0.0 33 100
r 0.282 3 0 cbr 500 ------- 0 3.0 0.0 33 101
+ 0.285 1 0 cbr 500 ------- 0 1.0 0.0 57 171
+ 0.285 2 0 cbr 500 ------- 0 2.0 0.0 57 172
+ 0.285 3 0 cbr 500 ------- 0 3.0 0.0 57 173
- 0.288 1 0 cbr 500 ------- 0 1.0 0.0 36 108
- 0.288 2 0 cbr 500 ------- 0 2.0 0.0 36 109
- 0.288 3 0 cbr 500 ------- 0 3.0 0.0 36 110
+ 0.29 1 0 cbr 500 ------- 0 1.0 0.0 58 174
+ 0.29 2 0 cbr 500 ------- 0 2.0 0.0 58 175
+ 0.29 3 0 cbr 500 ------- 0 3.0 0.0 58 176
r 0.29 1 0 cbr 500 ------- 0 1.0 0.0 34 102
r 0.29 2 0 cbr 500 ------- 0 2.0 0.0 34 103
r 0.29 3 0 cbr 500 ------- 0 3.0 0.0 34 104
+ 0.295 1 0 cbr 500 ------- 0 1.0 0.0 59 177
+ 0.295 2 0 cbr 500 ------- 0 2.0 0.0 59 178
+ 0.295 3 0 cbr 500 ------- 0 3.0 0.0 59 179
- 0.296 1 0 cbr 500 ------- 0 1.0 0.0 37 111
- 0.296 2 0 cbr 500 ------- 0 2.0 0.0 37 112
- 0.296 3 0 cbr 500 ------- 0 3.0 0.0 37 113
r 0.298 1 0 cbr 500 ------- 0 1.0 0.0 35 105
r 0.298 2 0 cbr 500 ------- 0 2.0 0.0 35 106
r 0.298 3 0 cbr 500 ------- 0 3.0 0.0 35 107
+ 0.3 1 0 cbr 500 ------- 0 1.0 0.0 60 180
+ 0.3 2 0 cbr 500 ------- 0 2.0 0.0 60 181
+ 0.3 3 0 cbr 500 ------- 0 3.0 0.0 60 182
- 0.304 1 0 cbr 500 ------- 0 1.0 0.0 38 114
- 0.304 2 0 cbr 500 ------- 0 2.0 0.0 38 115
- 0.304 3 0 cbr 500 ------- 0 3.0 0.0 38 116
+ 0.305 1 0 cbr 500 ------- 0 1.0 0.0 61 183
+ 0.305 2 0 cbr 500 ------- 0 2.0 0.0 61 184
+ 0.305 3 0 cbr 500 ------- 0 3.0 0.0 61 185
r 0.306 1 0 cbr 500 ------- 0 1.0 0.0 36 108
r 0.306 2 0 cbr 500 ------- 0 2.0 0.0 36 109
r 0.306 3 0 cbr 500 ------- 0 3.0 0.0 36 110
+ 0.31 1 0 cbr 500 ------- 0 1.0 0.0 62 186
+ 0.31 2 0 cbr 500 ------- 0 2.0 0.0 62 187
+ 0.31 3 0 cbr 500 ------- 0 3.0 0.0 62 188
- 0.312 1 0 cbr 500 ------- 0 1.0 0.0 39 117
- 0.312 2 0 cbr 500 ------- 0 2.0 0.0 39 118
- 0.312 3 0 cbr 500 ------- 0 3.0 0.0 39 119
r 0.314 1 0 cbr 500 ------- 0 1.0 0.0 37 111
r 0.314 2 0 cbr 500 ------- 0 2.0 0.0 37 112
r 0.314 3 0 cbr 500 ------- 0 3.0 0.0 37 113
+ 0.315 1 0 cbr 500 ------- 0 1.0 0.0 63 189
+ 0.315 2 0 cbr 500 ------- 0 2.0 0.0 63 190
+ 0.315 3 0 cbr 500 ------- 0 3.0 0.0 63 191
+ 0.32 1 0 cbr 500 ------- 0 1.0 0.0 64 192
+ 0.32 2 0 cbr 500 ------- 0 2.0 0.0 64 193
+ 0.32 3 0 cbr 500 ------- 0 3.0 0.0 64 194
- 0.32 1 0 cbr 500 ------- 0 1.0 0.0 40 120
- 0.32 2 0 cbr 500 ------- 0 2.0 0.0 40 121
- 0.32 3 0 cbr 500 ------- 0 3.0 0.0 40 122
r 0.322 1 0 cbr 500 ------- 0 1.0 0.0 38 114
r 0.322 2 0 cbr 500 ------- 0 2.0 0.0 38 115
r 0.322 3 0 cbr 500 ------- 0 3.0 0.0 38 116
+ 0.325 1 0 cbr 500 ------- 0 1.0 0.0 65 195
+ 0.325 2 0 cbr 500 ------- 0 2.0 0.0 65 196
+ 0.325 3 0 cbr 500 ------- 0 3.0 0.0 65 197
- 0.328 1 0 cbr 500 ------- 0 1.0 0.0 41 123
- 0.328 2 0 cbr 500 ------- 0 2.0 0.0 41 124
- 0.328 3 0 cbr 500 ------- 0 3.0 0.0 41 125
+ 0.33 1 0 cbr 500 ------- 0 1.0 0.0 66 198
+ 0.33 2 0 cbr 500 ------- 0 2.0 0.0 66 199
+ 0.33 3 0 cbr 500 ------- 0 3.0 0.0 66 200
r 0.33 1 0 cbr 500 ------- 0 1.0 0.0 39 117
r 0.33 2 0 cbr 500 ------- 0 2.0 0.0 39 118
r 0.33 3 0 cbr 500 ------- 0 3.0 0.0 39 119
+ 0.335 1 0 cbr 500 ------- 0 1.0 0.0 67 201
+ 0.335 2 0 cbr 500 ------- 0 2.0 0.0 67 202
+ 0.335 3 0 cbr 500 ------- 0 3.0 0.0 67 203
- 0.336 1 0 cbr 500 ------- 0 1.0 0.0 42 126
- 0.336 2 0 cbr 500 ------- 0 2.0 0.0 42 127
- 0.336 3 0 cbr 500 ------- 0 3.0 0.0 42 128
r 0.338 1 0 cbr 500 ------- 0 1.0 0.0 40 120
r 0.338 2 0 cbr 500 ------- 0 2.0 0.0 40 121
r 0.338 3 0 cbr 500 ------- 0 3.0 0.0 40 122
+ 0.34 1 0 cbr 500 ------- 0 1.0 0.0 68 204
+ 0.34 2 0 cbr 500 ------- 0 2.0 0.0 68 205
+ 0.34 3 0 cbr 500 ------- 0 3.0 0.0 68 206
- 0.344 1 0 cbr 500 ------- 0 1.0 0.0 43 129
- 0.344 2 0 cbr 500 ------- 0 2.0 0.0 43 130
- 0.344 3 0 cbr 500 ------- 0 3.0 0.0 43 131
+ 0.345 1 0 cbr 500 ------- 0 1.0 0.0 69 207
+ 0.345 2 0 cbr 500 ------- 0 2.0 0.0 69 208
+ 0.345 3 0 cbr 500 ------- 0 3.0 0.0 69 209
r 0.346 1 0 cbr 500 ------- 0 1.0 0.0 41 123
r 0.346 2 0 cbr 500 ------- 0 2.0 0.0 41 124
r 0.346 3 0 cbr 500 ------- 0 3.0 0.0 41 125
+ 0.35 1 0 cbr 500 ------- 0 1.0 0.0 70 210
+ 0.35 2 0 cbr 500 ------- 0 2.0 0.0 70 211
+ 0.35 3 0 cbr 500 ------- 0 3.0 0.0 70 212
- 0.352 1 0 cbr 500 ------- 0 1.0 0.0 44 132
- 0.352 2 0 cbr 500 ------- 0 2.0 0.0 44 133
- 0.352 3 0 cbr 500 ------- 0 3.0 0.0 44 134
r 0.354 1 0 cbr 500 ------- 0 1.0 0.0 42 126
r 0.354 2 0 cbr 500 ------- 0 2.0 0.0 42 127
r 0.354 3 0 cbr 500 ------- 0 3.0 0.0 42 128
+ 0.355 1 0 cbr 500 ------- 0 1.0 0.0 71 213
+ 0.355 2 0 cbr 500 ------- 0 2.0 0.0 71 214
+ 0.355 3 0 cbr 500 ------- 0 3.0 0.0 71 215
+ 0.36 1 0 cbr 500 ------- 0 1.0 0.0 72 216
+ 0.36 2 0 cbr 500 ------- 0 2.0 0.0 72 217
+ 0.36 3 0 cbr 500 ------- 0 3.0 0.0 72 218
- 0.36 1 0 cbr 500 ------- 0 1.0 0.0 45 135
- 0.36 2 0 cbr 500 ------- 0 2.0 0.0 45 136
- 0.36 3 0 cbr 500 ------- 0 3.0 0.0 45 137
r 0.362 1 0 cbr 500 ------- 0 1.0 0.0 43 129
r 0.362 2 0 cbr 500 ------- 0 2.0 0.0 43 130
r 0.362 3 0 cbr 500 ------- 0 3.0 0.0 43 131
+ 0.365 1 0 cbr 500 ------- 0 1.0 0.0 73 219
+ 0.365 2 0 cbr 500 ------- 0 2.0 0.0 73 220
+ 0.365 3 0 cbr 500 ------- 0 3.0 0.0 73 221
- 0.368 1 0 cbr 500 ------- 0 1.0 0.0 46 138
- 0.368 2 0 cbr 500 ------- 0 2.0 0.0 46 139
- 0.368 3 0 cbr 500 ------- 0 3.0 0.0 46 140
+ 0.37 1 0 cbr 500 ------- 0 1.0 0.0 74 222
+ 0.37 2 0 cbr 500 ------- 0 2.0 0.0 74 223
+ 0.37 3 0 cbr 500 ------- 0 3.0 0.0 74 224
r 0.37 1 0 cbr 500 ------- 0 1.0 0.0 44 132
r 0.37 2 0 cbr 500 ------- 0 2.0 0.0 44 133
r 0.37 3 0 cbr 500 ------- 0 3.0 0.0 44 134
+ 0.375 1 0 cbr 500 ------- 0 1.0 0.0 75 225
+ 0.375 2 0 cbr 500 ------- 0 2.0 0.0 75 226
+ 0.375 3 0 cbr 500 ------- 0 3.0 0.0 75 227
- 0.376 1 0 cbr 500 ------- 0 1.0 0.0 47 141
- 0.376 2 0 cbr 500 ------- 0 2.0 0.0 47 142
- 0.376 3 0 cbr 500 ------- 0 3.0 0.0 47 143
r 0.378 1 0 cbr 500 ------- 0 1.0 0.0 45 135
r 0.378 2 0 cbr 500 ------- 0 2.0 0.0 45 136
r 0.378 3 0 cbr 500 ------- 0 3.0 0.0 45 137
+ 0.38 1 0 cbr 500 ------- 0 1.0 0.0 76 228
+ 0.38 2 0 cbr 500 ------- 0 2.0 0.0 76 229
+ 0.38 3 0 cbr 500 ------- 0 3.0 0.0 76 230
- 0.384 1 0 cbr 500 ------- 0 1.0 0.0 48 144
- 0.384 2 0 cbr 500 ------- 0 2.0 0.0 48 145
- 0.384 3 0 cbr 500 ------- 0 3.0 0.0 48 146
+ 0.385 1 0 cbr 500 ------- 0 1.0 0.0 77 231
+ 0.385 2 0 cbr 500 ------- 0 2.0 0.0 77 232
+ 0.385 3 0 cbr 500 ------- 0 3.0 0.0 77 233
r 0.386 1 0 cbr 500 ------- 0 1.0 0.0 46 138
r 0.386 2 0 cbr 500 ------- 0 2.0 0.0 46 139
r 0.386 3 0 cbr 500 ------- 0 3.0 0.0 46 140
+ 0.39 1 0 cbr 500 ------- 0 1.0 0.0 78 234
+ 0.39 2 0 cbr 500 ------- 0 2.0 0.0 78 235
+ 0.39 3 0 cbr 500 ------- 0 3.0 0.0 78 236
- 0.392 1 0 cbr 500 ------- 0 1.0 0.0 49 147
- 0.392 2 0 cbr 500 ------- 0 2.0 0.0 49 148
- 0.392 3 0 cbr 500 ------- 0 3.0 0.0 49 149
r 0.394 1 0 cbr 500 ------- 0 1.0 0.0 47 141
r 0.394 2 0 cbr 500 ------- 0 2.0 0.0 47 142
r 0.394 3 0 cbr 500 ------- 0 3.0 0.0 47 143
+ 0.395 1 0 cbr 500 ------- 0 1.0 0.0 79 237
+ 0.395 2 0 cbr 500 ------- 0 2.0 0.0 79 238
+ 0.395 3 0 cbr 500 ------- 0 3.0 0.0 79 239
+ 0.4 4 0 cbr 500 ------- 0 4.0 0.0 0 240
- 0.4 4 0 cbr 500 ------- 0 4.0 0.0 0 240
+ 0.4 1 0 cbr 500 ------- 0 1.0 0.0 80 241
+ 0.4 2 0 cbr 500 ------- 0 2.0 0.0 80 242
+ 0.4 3 0 cbr 500 ------- 0 3.0 0.0 80 243
- 0.4 1 0 cbr 500 ------- 0 1.0 0.0 50 150
- 0.4 2 0 cbr 500 ------- 0 2.0 0.0 50 151
- 0.4 3 0 cbr 500 ------- 0 3.0 0.0 50 152
r 0.402 1 0 cbr 500 ------- 0 1.0 0.0 48 144
r 0.402 2 0 cbr 500 ------- 0 2.0 0.0 48 145
r 0.402 3 0 cbr 500 ------- 0 3.0 0.0 48 146
+ 0.405 4 0 cbr 500 ------- 0 4.0 0.0 1 244
+ 0.405 1 0 cbr 500 ------- 0 1.0 0.0 81 245
+ 0.405 2 0 cbr 500 ------- 0 2.0 0.0 81 246
+ 0.405 3 0 cbr 500 ------- 0 3.0 0.0 81 247
- 0.408 4 0 cbr 500 ------- 0 4.0 0.0 1 244
- 0.408 1 0 cbr 500 ------- 0 1.0 0.0 51 153
- 0.408 2 0 cbr 500 ------- 0 2.0 0.0 51 154
- 0.408 3 0 cbr 500 ------- 0 3.0 0.0 51 155
+ 0.41 4 0 cbr 500 ------- 0 4.0 0.0 2 248
+ 0.41 1 0 cbr 500 ------- 0 1.0 0.0 82 249
+ 0.41 2 0 cbr 500 ------- 0 2.0 0.0 82 250
+ 0.41 3 0 cbr 500 ------- 0 3.0 0.0 82 251
r 0.41 1 0 cbr 500 ------- 0 1.0 0.0 49 147
r 0.41 2 0 cbr 500 ------- 0 2.0 0.0 49 148
r 0.41 3 0 cbr 500 ------- 0 3.0 0.0 49 149
+ 0.415 4 0 cbr 500 ------- 0 4.0 0.0 3 252
+ 0.415 1 0 cbr 500 ------- 0 1.0 0.0 83 253
+ 0.415 2 0 cbr 500 ------- 0 2.0 0.0 83 254
+ 0.415 3 0 cbr 500 ------- 0 3.0 0.0 83 255
- 0.416 4 0 cbr 500 ------- 0 4.0 0.0 2 248
- 0.416 1 0 cbr 500 ------- 0 1.0 0.0 52 156
- 0.416 2 0 cbr 500 ------- 0 2.0 0.0 52 157
- 0.416 3 0 cbr 500 ------- 0 3.0 0.0 52 158
r 0.418 4 0 cbr 500 ------- 0 4.0 0.0 0 240
r 0.418 1 0 cbr 500 ------- 0 1.0 0.0 50 150
r 0.418 2 0 cbr 500 ------- 0 2.0 0.0 50 151
r 0.418 3 0 cbr 500 ------- 0 3.0 0.0 50 152
+ 0.42 4 0 cbr 500 ------- 0 4.0 0.0 4 256
+ 0.42 1 0 cbr 500 ------- 0 1.0 0.0 84 257
+ 0.42 2 0 cbr 500 ------- 0 2.0 0.0 84 258
+ 0.42 3 0 cbr 500 ------- 0 3.0 0.0 84 259
- 0.424 4 0 cbr 500 ------- 0 4.0 0.0 3 252
- 0.424 1 0 cbr 500 ------- 0 1.0 0.0 53 159
- 0.424 2 0 cbr 500 ------- 0 2.0 0.0 53 160
- 0.424 3 0 cbr 500 ------- 0 3.0 0.0 53 161
+ 0.425 4 0 cbr 500 ------- 0 4.0 0.0 5 260
+ 0.425 1 0 cbr 500 ------- 0 1.0 0.0 85 261
+ 0.425 2 0 cbr 500 ------- 0 2.0 0.0 85 262
+ 0.425 3 0 cbr 500 ------- 0 3.0 0.0 85 263
r 0.426 4 0 cbr 500 ------- 0 4.0 0.0 1 244
r 0.426 1 0 cbr 500 ------- 0 1.0 0.0 51 153
r 0.426 2 0 cbr 500 ------- 0 2.0 0.0 51 154
r 0.426 3 0 cbr 500 ------- 0 3.0 0.0 51 155
+ 0.43 4 0 cbr 500 ------- 0 4.0 0.0 6 264
+ 0.43 1 0 cbr 500 ------- 0 1.0 0.0 86 265
+ 0.43 2 0 cbr 500 ------- 0 2.0 0.0 86 266
+ 0.43 3 0 cbr 500 ------- 0 3.0 0.0 86 267
- 0.432 4 0 cbr 500 ------- 0 4.0 0.0 4 256
- 0.432 1 0 cbr 500 ------- 0 1.0 0.0 54 162
- 0.432 2 0 cbr 500 ------- 0 2.0 0.0 54 163
- 0.432 3 0 cbr 500 ------- 0 3.0 0.0 54 164
r 0.434 4 0 cbr 500 ------- 0 4.0 0.0 2 248
r 0.434 1 0 cbr 500 ------- 0 1.0 0.0 52 156
r 0.434 2 0 cbr 500 ------- 0 2.0 0.0 52 157
r 0.434 3 0 cbr 500 ------- 0 3.0 0.0 52 158
+ 0.435 4 0 cbr 500 ------- 0 4.0 0.0 7 268
+ 0.435 1 0 cbr 500 ------- 0 1.0 0.0 87 269
+ 0.435 2 0 cbr 500 ------- 0 2.0 0.0 87 270
+ 0.435 3 0 cbr 500 ------- 0 3.0 0.0 87 271
- 0.44 4 0 cbr 500 ------- 0 4.0 0.0 5 260
+ 0.44 4 0 cbr 500 ------- 0 4.0 0.0 8 272
+ 0.44 1 0 cbr 500 ------- 0 1.0 0.0 88 273
+ 0.44 2 0 cbr 500 ------- 0 2.0 0.0 88 274
+ 0.44 3 0 cbr 500 ------- 0 3.0 0.0 88 275
- 0.44 1 0 cbr 500 ------- 0 1.0 0.0 55 165
- 0.44 2 0 cbr 500 ------- 0 2.0 0.0 55 166
- 0.44 3 0 cbr 500 ------- 0 3.0 0.0 55 167
r 0.442 4 0 cbr 500 ------- 0 4.0 0.0 3 252
r 0.442 1 0 cbr 500 ------- 0 1.0 0.0 53 159
r 0.442 2 0 cbr 500 ------- 0 2.0 0.0 53 160
r 0.442 3 0 cbr 500 ------- 0 3.0 0.0 53 161
+ 0.445 4 0 cbr 500 ------- 0 4.0 0.0 9 276
+ 0.445 1 0 cbr 500 ------- 0 1.0 0.0 89 277
+ 0.445 2 0 cbr 500 ------- 0 2.0 0.0 89 278
+ 0.445 3 0 cbr 500 ------- 0 3.0 0.0 89 279
- 0.448 4 0 cbr 500 ------- 0 4.0 0.0 6 264
- 0.448 1 0 cbr 500 ------- 0 1.0 0.0 56 168
- 0.448 2 0 cbr 500 ------- 0 2.0 0.0 56 169
- 0.448 3 0 cbr 500 ------- 0 3.0 0.0 56 170
r 0.45 4 0 cbr 500 ------- 0 4.0 0.0 4 256
+ 0.45 4 0 cbr 500 ------- 0 4.0 0.0 10 280
+ 0.45 1 0 cbr 500 ------- 0 1.0 0.0 90 281
+ 0.45 2 0 cbr 500 ------- 0 2.0 0.0 90 282
+ 0.45 3 0 cbr 500 ------- 0 3.0 0.0 90 283
r 0.45 1 0 cbr 500 ------- 0 1.0 0.0 54 162
r 0.45 2 0 cbr 500 ------- 0 2.0 0.0 54 163
r 0.45 3 0 cbr 500 ------- 0 3.0 0.0 54 164
+ 0.455 4 0 cbr 500 ------- 0 4.0 0.0 11 284
+ 0.455 1 0 cbr 500 ------- 0 1.0 0.0 91 285
+ 0.455 2 0 cbr 500 ------- 0 2.0 0.0 91 286
+ 0.455 3 0 cbr 500 ------- 0 3.0 0.0 91 287
- 0.456 4 0 cbr 500 ------- 0 4.0 0.0 7 268
- 0.456 1 0 cbr 500 ------- 0 1.0 0.0 57 171
- 0.456 2 0 cbr 500 ------- 0 2.0 0.0 57 172
- 0.456 3 0 cbr 500 ------- 0 3.0 0.0 57 173
r 0.458 4 0 cbr 500 ------- 0 4.0 0.0 5 260
r 0.458 1 0 cbr 500 ------- 0 1.0 0.0 55 165
r 0.458 2 0 cbr 500 ------- 0 2.0 0.0 55 166
r 0.458 3 0 cbr 500 ------- 0 3.0 0.0 55 167
+ 0.46 4 0 cbr 500 ------- 0 4.0 0.0 12 288
+ 0.46 1 0 cbr 500 ------- 0 1.0 0.0 92 289
+ 0.46 2 0 cbr 500 ------- 0 2.0 0.0 92 290
+ 0.46 3 0 cbr 500 ------- 0 3.0 0.0 92 291
- 0.464 4 0 cbr 500 ------- 0 4.0 0.0 8 272
- 0.464 1 0 cbr 500 ------- 0 1.0 0.0 58 174
- 0.464 2 0 cbr 500 ------- 0 2.0 0.0 58 175
- 0.464 3 0 cbr 500 ------- 0 3.0 0.0 58 176
+ 0.465 4 0 cbr 500 ------- 0 4.0 0.0 13 292
+ 0.465 1 0 cbr 500 ------- 0 1.0 0.0 93 293
+ 0.465 2 0 cbr 500 ------- 0 2.0 0.0 93 294
+ 0.465 3 0 cbr 500 ------- 0 3.0 0.0 93 295
r 0.466 4 0 cbr 500 ------- 0 4.0 0.0 6 264
r 0.466 1 0 cbr 500 ------- 0 1.0 0.0 56 168
r 0.466 2 0 cbr 500 ------- 0 2.0 0.0 56 169
r 0.466 3 0 cbr 500 ------- 0 3.0 0.0 56 170
+ 0.47 4 0 cbr 500 ------- 0 4.0 0.0 14 296
+ 0.47 1 0 cbr 500 ------- 0 1.0 0.0 94 297
+ 0.47 2 0 cbr 500 ------- 0 2.0 0.0 94 298
+ 0.47 3 0 cbr 500 ------- 0 3.0 0.0 94 299
- 0.472 4 0 cbr 500 ------- 0 4.0 0.0 9 276
- 0.472 1 0 cbr 500 ------- 0 1.0 0.0 59 177
- 0.472 2 0 cbr 500 ------- 0 2.0 0.0 59 178
- 0.472 3 0 cbr 500 ------- 0 3.0 0.0 59 179
r 0.474 4 0 cbr 500 ------- 0 4.0 0.0 7 268
r 0.474 1 0 cbr 500 ------- 0 1.0 0.0 57 171
r 0.474 2 0 cbr 500 ------- 0 2.0 0.0 57 172
r 0.474 3 0 cbr 500 ------- 0 3.0 0.0 57 173
+ 0.475 4 0 cbr 500 ------- 0 4.0 0.0 15 300
+ 0.475 1 0 cbr 500 ------- 0 1.0 0.0 95 301
+ 0.475 2 0 cbr 500 ------- 0 2.0 0.0 95 302
+ 0.475 3 0 cbr 500 ------- 0 3.0 0.0 95 303
- 0.48 4 0 cbr 500 ------- 0 4.0 0.0 10 280
+ 0.48 4 0 cbr 500 ------- 0 4.0 0.0 16 304
+ 0.48 1 0 cbr 500 ------- 0 1.0 0.0 96 305
+ 0.48 2 0 cbr 500 ------- 0 2.0 0.0 96 306
+ 0.48 3 0 cbr 500 ------- 0 3.0 0.0 96 307
- 0.48 1 0 cbr 500 ------- 0 1.0 0.0 60 180