+ 1 0 1 tcp 40 ------- 0 0.0 1.0 0 0
- 1 0 1 tcp 40 ------- 0 0.0 1.0 0 0
r 1.005064 0 1 tcp 40 ------- 0 0.0 1.0 0 0
+ 1.005064 1 0 ack 40 ------- 0 1.0 0.0 0 1
- 1.005064 1 0 ack 40 ------- 0 1.0 0.0 0 1
r 1.010128 1 0 ack 40 ------- 0 1.0 0.0 0 1
+ 1.010128 0 1 tcp 10040 ------- 0 0.0 1.0 1 2
- 1.010128 0 1 tcp 10040 ------- 0 0.0 1.0 1 2
+ 1.010128 0 1 tcp 10040 ------- 0 0.0 1.0 2 3
- 1.026192 0 1 tcp 10040 ------- 0 0.0 1.0 2 3
r 1.031192 0 1 tcp 10040 ------- 0 0.0 1.0 1 2
+ 1.031192 1 0 ack 40 ------- 0 1.0 0.0 1 4
- 1.031192 1 0 ack 40 ------- 0 1.0 0.0 1 4
r 1.036256 1 0 ack 40 ------- 0 1.0 0.0 1 4
+ 1.036256 0 1 tcp 10040 ------- 0 0.0 1.0 3 5
+ 1.036256 0 1 tcp 10040 ------- 0 0.0 1.0 4 6
d 1.036256 0 1 tcp 10040 ------- 0 0.0 1.0 4 6
- 1.042256 0 1 tcp 10040 ------- 0 0.0 1.0 3 5
r 1.047256 0 1 tcp 10040 ------- 0 0.0 1.0 2 3
+ 1.047256 1 0 ack 40 ------- 0 1.0 0.0 2 7
- 1.047256 1 0 ack 40 ------- 0 1.0 0.0 2 7
r 1.05232 1 0 ack 40 ------- 0 1.0 0.0 2 7
+ 1.05232 0 1 tcp 10040 ------- 0 0.0 1.0 5 8
+ 1.05232 0 1 tcp 10040 ------- 0 0.0 1.0 6 9
d 1.05232 0 1 tcp 10040 ------- 0 0.0 1.0 6 9
- 1.05832 0 1 tcp 10040 ------- 0 0.0 1.0 5 8
r 1.06332 0 1 tcp 10040 ------- 0 0.0 1.0 3 5
+ 1.06332 1 0 ack 40 ------- 0 1.0 0.0 3 10
- 1.06332 1 0 ack 40 ------- 0 1.0 0.0 3 10
r 1.068384 1 0 ack 40 ------- 0 1.0 0.0 3 10
+ 1.068384 0 1 tcp 10040 ------- 0 0.0 1.0 7 11
+ 1.068384 0 1 tcp 10040 ------- 0 0.0 1.0 8 12
d 1.068384 0 1 tcp 10040 ------- 0 0.0 1.0 8 12
- 1.074384 0 1 tcp 10040 ------- 0 0.0 1.0 7 11
r 1.079384 0 1 tcp 10040 ------- 0 0.0 1.0 5 8
+ 1.079384 1 0 ack 40 ------- 0 1.0 0.0 3 13
- 1.079384 1 0 ack 40 ------- 0 1.0 0.0 3 13
r 1.084448 1 0 ack 40 ------- 0 1.0 0.0 3 13
+ 1.084448 0 1 tcp 10040 ------- 0 0.0 1.0 9 14
- 1.090448 0 1 tcp 10040 ------- 0 0.0 1.0 9 14
r 1.095448 0 1 tcp 10040 ------- 0 0.0 1.0 7 11
+ 1.095448 1 0 ack 40 ------- 0 1.0 0.0 3 15
- 1.095448 1 0 ack 40 ------- 0 1.0 0.0 3 15
r 1.100512 1 0 ack 40 ------- 0 1.0 0.0 3 15
+ 1.100512 0 1 tcp 10040 ------- 0 0.0 1.0 10 16
- 1.106512 0 1 tcp 10040 ------- 0 0.0 1.0 10 16
r 1.111512 0 1 tcp 10040 ------- 0 0.0 1.0 9 14
+ 1.111512 1 0 ack 40 ------- 0 1.0 0.0 3 17
- 1.111512 1 0 ack 40 ------- 0 1.0 0.0 3 17
r 1.116576 1 0 ack 40 ------- 0 1.0 0.0 3 17
+ 1.116576 0 1 tcp 10040 ---A--- 0 0.0 1.0 4 18
- 1.122576 0 1 tcp 10040 ---A--- 0 0.0 1.0 4 18
r 1.127576 0 1 tcp 10040 ------- 0 0.0 1.0 10 16
+ 1.127576 1 0 ack 40 ------- 0 1.0 0.0 3 19
- 1.127576 1 0 ack 40 ------- 0 1.0 0.0 3 19
r 1.13264 1 0 ack 40 ------- 0 1.0 0.0 3 19
r 1.14364 0 1 tcp 10040 ---A--- 0 0.0 1.0 4 18
+ 1.14364 1 0 ack 40 ------- 0 1.0 0.0 5 20
- 1.14364 1 0 ack 40 ------- 0 1.0 0.0 5 20
r 1.148704 1 0 ack 40 ------- 0 1.0 0.0 5 20
+ 1.148704 0 1 tcp 10040 ------- 0 0.0 1.0 6 21
- 1.148704 0 1 tcp 10040 ------- 0 0.0 1.0 6 21
+ 1.148704 0 1 tcp 10040 ------- 0 0.0 1.0 7 22
- 1.164768 0 1 tcp 10040 ------- 0 0.0 1.0 7 22
r 1.169768 0 1 tcp 10040 ------- 0 0.0 1.0 6 21
+ 1.169768 1 0 ack 40 ------- 0 1.0 0.0 7 23
- 1.169768 1 0 ack 40 ------- 0 1.0 0.0 7 23
r 1.174832 1 0 ack 40 ------- 0 1.0 0.0 7 23
+ 1.174832 0 1 tcp 10040 ------- 0 0.0 1.0 8 24
+ 1.174832 0 1 tcp 10040 ------- 0 0.0 1.0 9 25
d 1.174832 0 1 tcp 10040 ------- 0 0.0 1.0 9 25
- 1.180832 0 1 tcp 10040 ------- 0 0.0 1.0 8 24
r 1.185832 0 1 tcp 10040 ------- 0 0.0 1.0 7 22
+ 1.185832 1 0 ack 40 ------- 0 1.0 0.0 7 26
- 1.185832 1 0 ack 40 ------- 0 1.0 0.0 7 26
r 1.190896 1 0 ack 40 ------- 0 1.0 0.0 7 26
+ 1.190896 0 1 tcp 10040 ------- 0 0.0 1.0 10 27
- 1.196896 0 1 tcp 10040 ------- 0 0.0 1.0 10 27
r 1.201896 0 1 tcp 10040 ------- 0 0.0 1.0 8 24
+ 1.201896 1 0 ack 40 ------- 0 1.0 0.0 10 28
- 1.201896 1 0 ack 40 ------- 0 1.0 0.0 10 28
r 1.20696 1 0 ack 40 ------- 0 1.0 0.0 10 28
+ 1.20696 0 1 tcp 10040 ------- 0 0.0 1.0 11 29
+ 1.20696 0 1 tcp 10040 ------- 0 0.0 1.0 12 30
d 1.20696 0 1 tcp 10040 ------- 0 0.0 1.0 12 30
- 1.21296 0 1 tcp 10040 ------- 0 0.0 1.0 11 29
r 1.21796 0 1 tcp 10040 ------- 0 0.0 1.0 10 27
+ 1.21796 1 0 ack 40 ------- 0 1.0 0.0 10 31
- 1.21796 1 0 ack 40 ------- 0 1.0 0.0 10 31
r 1.223024 1 0 ack 40 ------- 0 1.0 0.0 10 31
+ 1.223024 0 1 tcp 10040 ------- 0 0.0 1.0 13 32
- 1.229024 0 1 tcp 10040 ------- 0 0.0 1.0 13 32
r 1.234024 0 1 tcp 10040 ------- 0 0.0 1.0 11 29
+ 1.234024 1 0 ack 40 ------- 0 1.0 0.0 11 33
- 1.234024 1 0 ack 40 ------- 0 1.0 0.0 11 33
r 1.239088 1 0 ack 40 ------- 0 1.0 0.0 11 33
+ 1.239088 0 1 tcp 10040 ------- 0 0.0 1.0 14 34
- 1.245088 0 1 tcp 10040 ------- 0 0.0 1.0 14 34
r 1.250088 0 1 tcp 10040 ------- 0 0.0 1.0 13 32
+ 1.250088 1 0 ack 40 ------- 0 1.0 0.0 11 35
- 1.250088 1 0 ack 40 ------- 0 1.0 0.0 11 35
r 1.255152 1 0 ack 40 ------- 0 1.0 0.0 11 35
+ 1.255152 0 1 tcp 10040 ------- 0 0.0 1.0 15 36
- 1.261152 0 1 tcp 10040 ------- 0 0.0 1.0 15 36
r 1.266152 0 1 tcp 10040 ------- 0 0.0 1.0 14 34
+ 1.266152 1 0 ack 40 ------- 0 1.0 0.0 11 37
- 1.266152 1 0 ack 40 ------- 0 1.0 0.0 11 37
r 1.271216 1 0 ack 40 ------- 0 1.0 0.0 11 37
+ 1.271216 0 1 tcp 10040 ------- 0 0.0 1.0 16 38
- 1.277216 0 1 tcp 10040 ------- 0 0.0 1.0 16 38
r 1.282216 0 1 tcp 10040 ------- 0 0.0 1.0 15 36
+ 1.282216 1 0 ack 40 ------- 0 1.0 0.0 11 39
- 1.282216 1 0 ack 40 ------- 0 1.0 0.0 11 39
r 1.28728 1 0 ack 40 ------- 0 1.0 0.0 11 39
+ 1.28728 0 1 tcp 10040 ---A--- 0 0.0 1.0 12 40
- 1.29328 0 1 tcp 10040 ---A--- 0 0.0 1.0 12 40
r 1.29828 0 1 tcp 10040 ------- 0 0.0 1.0 16 38
+ 1.29828 1 0 ack 40 ------- 0 1.0 0.0 11 41
- 1.29828 1 0 ack 40 ------- 0 1.0 0.0 11 41
r 1.303344 1 0 ack 40 ------- 0 1.0 0.0 11 41
r 1.314344 0 1 tcp 10040 ---A--- 0 0.0 1.0 12 40
+ 1.314344 1 0 ack 40 ------- 0 1.0 0.0 16 42
- 1.314344 1 0 ack 40 ------- 0 1.0 0.0 16 42
r 1.319408 1 0 ack 40 ------- 0 1.0 0.0 16 42
+ 1.319408 0 1 tcp 10040 ------- 0 0.0 1.0 17 43
- 1.319408 0 1 tcp 10040 ------- 0 0.0 1.0 17 43
+ 1.319408 0 1 tcp 10040 ------- 0 0.0 1.0 18 44
- 1.335472 0 1 tcp 10040 ------- 0 0.0 1.0 18 44
r 1.340472 0 1 tcp 10040 ------- 0 0.0 1.0 17 43
+ 1.340472 1 0 ack 40 ------- 0 1.0 0.0 17 45
- 1.340472 1 0 ack 40 ------- 0 1.0 0.0 17 45
r 1.345536 1 0 ack 40 ------- 0 1.0 0.0 17 45
+ 1.345536 0 1 tcp 10040 ------- 0 0.0 1.0 19 46
- 1.351536 0 1 tcp 10040 ------- 0 0.0 1.0 19 46
r 1.356536 0 1 tcp 10040 ------- 0 0.0 1.0 18 44
+ 1.356536 1 0 ack 40 ------- 0 1.0 0.0 18 47
- 1.356536 1 0 ack 40 ------- 0 1.0 0.0 18 47
r 1.3616 1 0 ack 40 ------- 0 1.0 0.0 18 47
+ 1.3616 0 1 tcp 10040 ------- 0 0.0 1.0 20 48
- 1.3676 0 1 tcp 10040 ------- 0 0.0 1.0 20 48
r 1.3726 0 1 tcp 10040 ------- 0 0.0 1.0 19 46
+ 1.3726 1 0 ack 40 ------- 0 1.0 0.0 19 49
- 1.3726 1 0 ack 40 ------- 0 1.0 0.0 19 49
r 1.377664 1 0 ack 40 ------- 0 1.0 0.0 19 49
+ 1.377664 0 1 tcp 10040 ------- 0 0.0 1.0 21 50
+ 1.377664 0 1 tcp 10040 ------- 0 0.0 1.0 22 51
d 1.377664 0 1 tcp 10040 ------- 0 0.0 1.0 22 51
- 1.383664 0 1 tcp 10040 ------- 0 0.0 1.0 21 50
r 1.388664 0 1 tcp 10040 ------- 0 0.0 1.0 20 48
+ 1.388664 1 0 ack 40 ------- 0 1.0 0.0 20 52
- 1.388664 1 0 ack 40 ------- 0 1.0 0.0 20 52
r 1.393728 1 0 ack 40 ------- 0 1.0 0.0 20 52
+ 1.393728 0 1 tcp 10040 ------- 0 0.0 1.0 23 53
- 1.399728 0 1 tcp 10040 ------- 0 0.0 1.0 23 53
r 1.404728 0 1 tcp 10040 ------- 0 0.0 1.0 21 50
+ 1.404728 1 0 ack 40 ------- 0 1.0 0.0 21 54
- 1.404728 1 0 ack 40 ------- 0 1.0 0.0 21 54
r 1.409792 1 0 ack 40 ------- 0 1.0 0.0 21 54
+ 1.409792 0 1 tcp 10040 ------- 0 0.0 1.0 24 55
- 1.415792 0 1 tcp 10040 ------- 0 0.0 1.0 24 55
r 1.420792 0 1 tcp 10040 ------- 0 0.0 1.0 23 53
+ 1.420792 1 0 ack 40 ------- 0 1.0 0.0 21 56
- 1.420792 1 0 ack 40 ------- 0 1.0 0.0 21 56
r 1.425856 1 0 ack 40 ------- 0 1.0 0.0 21 56
+ 1.425856 0 1 tcp 10040 ------- 0 0.0 1.0 25 57
- 1.431856 0 1 tcp 10040 ------- 0 0.0 1.0 25 57
r 1.436856 0 1 tcp 10040 ------- 0 0.0 1.0 24 55
+ 1.436856 1 0 ack 40 ------- 0 1.0 0.0 21 58
- 1.436856 1 0 ack 40 ------- 0 1.0 0.0 21 58
r 1.44192 1 0 ack 40 ------- 0 1.0 0.0 21 58
+ 1.44192 0 1 tcp 10040 ------- 0 0.0 1.0 26 59
- 1.44792 0 1 tcp 10040 ------- 0 0.0 1.0 26 59
r 1.45292 0 1 tcp 10040 ------- 0 0.0 1.0 25 57
+ 1.45292 1 0 ack 40 ------- 0 1.0 0.0 21 60
- 1.45292 1 0 ack 40 ------- 0 1.0 0.0 21 60
r 1.457984 1 0 ack 40 ------- 0 1.0 0.0 21 60
+ 1.457984 0 1 tcp 10040 ---A--- 0 0.0 1.0 22 61
- 1.463984 0 1 tcp 10040 ---A--- 0 0.0 1.0 22 61
r 1.468984 0 1 tcp 10040 ------- 0 0.0 1.0 26 59
+ 1.468984 1 0 ack 40 ------- 0 1.0 0.0 21 62
- 1.468984 1 0 ack 40 ------- 0 1.0 0.0 21 62
r 1.474048 1 0 ack 40 ------- 0 1.0 0.0 21 62
r 1.485048 0 1 tcp 10040 ---A--- 0 0.0 1.0 22 61
+ 1.485048 1 0 ack 40 ------- 0 1.0 0.0 26 63
- 1.485048 1 0 ack 40 ------- 0 1.0 0.0 26 63
r 1.490112 1 0 ack 40 ------- 0 1.0 0.0 26 63
+ 1.490112 0 1 tcp 10040 ------- 0 0.0 1.0 27 64
- 1.490112 0 1 tcp 10040 ------- 0 0.0 1.0 27 64
+ 1.490112 0 1 tcp 10040 ------- 0 0.0 1.0 28 65
- 1.506176 0 1 tcp 10040 ------- 0 0.0 1.0 28 65
r 1.511176 0 1 tcp 10040 ------- 0 0.0 1.0 27 64
+ 1.511176 1 0 ack 40 ------- 0 1.0 0.0 27 66
- 1.511176 1 0 ack 40 ------- 0 1.0 0.0 27 66
r 1.51624 1 0 ack 40 ------- 0 1.0 0.0 27 66
+ 1.51624 0 1 tcp 10040 ------- 0 0.0 1.0 29 67
- 1.52224 0 1 tcp 10040 ------- 0 0.0 1.0 29 67
r 1.52724 0 1 tcp 10040 ------- 0 0.0 1.0 28 65
+ 1.52724 1 0 ack 40 ------- 0 1.0 0.0 28 68
- 1.52724 1 0 ack 40 ------- 0 1.0 0.0 28 68
r 1.532304 1 0 ack 40 ------- 0 1.0 0.0 28 68
+ 1.532304 0 1 tcp 10040 ------- 0 0.0 1.0 30 69
- 1.538304 0 1 tcp 10040 ------- 0 0.0 1.0 30 69
r 1.543304 0 1 tcp 10040 ------- 0 0.0 1.0 29 67
+ 1.543304 1 0 ack 40 ------- 0 1.0 0.0 29 70
- 1.543304 1 0 ack 40 ------- 0 1.0 0.0 29 70
r 1.548368 1 0 ack 40 ------- 0 1.0 0.0 29 70
+ 1.548368 0 1 tcp 10040 ------- 0 0.0 1.0 31 71
+ 1.548368 0 1 tcp 10040 ------- 0 0.0 1.0 32 72
d 1.548368 0 1 tcp 10040 ------- 0 0.0 1.0 32 72
- 1.554368 0 1 tcp 10040 ------- 0 0.0 1.0 31 71
r 1.559368 0 1 tcp 10040 ------- 0 0.0 1.0 30 69
+ 1.559368 1 0 ack 40 ------- 0 1.0 0.0 30 73
- 1.559368 1 0 ack 40 ------- 0 1.0 0.0 30 73
r 1.564432 1 0 ack 40 ------- 0 1.0 0.0 30 73
+ 1.564432 0 1 tcp 10040 ------- 0 0.0 1.0 33 74
- 1.570432 0 1 tcp 10040 ------- 0 0.0 1.0 33 74
r 1.575432 0 1 tcp 10040 ------- 0 0.0 1.0 31 71
+ 1.575432 1 0 ack 40 ------- 0 1.0 0.0 31 75
- 1.575432 1 0 ack 40 ------- 0 1.0 0.0 31 75
r 1.580496 1 0 ack 40 ------- 0 1.0 0.0 31 75
+ 1.580496 0 1 tcp 10040 ------- 0 0.0 1.0 34 76
- 1.586496 0 1 tcp 10040 ------- 0 0.0 1.0 34 76
r 1.591496 0 1 tcp 10040 ------- 0 0.0 1.0 33 74
+ 1.591496 1 0 ack 40 ------- 0 1.0 0.0 31 77
- 1.591496 1 0 ack 40 ------- 0 1.0 0.0 31 77
r 1.59656 1 0 ack 40 ------- 0 1.0 0.0 31 77
+ 1.59656 0 1 tcp 10040 ------- 0 0.0 1.0 35 78
- 1.60256 0 1 tcp 10040 ------- 0 0.0 1.0 35 78
r 1.60756 0 1 tcp 10040 ------- 0 0.0 1.0 34 76
+ 1.60756 1 0 ack 40 ------- 0 1.0 0.0 31 79
- 1.60756 1 0 ack 40 ------- 0 1.0 0.0 31 79
r 1.612624 1 0 ack 40 ------- 0 1.0 0.0 31 79
+ 1.612624 0 1 tcp 10040 ------- 0 0.0 1.0 36 80
- 1.618624 0 1 tcp 10040 ------- 0 0.0 1.0 36 80
r 1.623624 0 1 tcp 10040 ------- 0 0.0 1.0 35 78
+ 1.623624 1 0 ack 40 ------- 0 1.0 0.0 31 81
- 1.623624 1 0 ack 40 ------- 0 1.0 0.0 31 81
r 1.628688 1 0 ack 40 ------- 0 1.0 0.0 31 81
+ 1.628688 0 1 tcp 10040 ---A--- 0 0.0 1.0 32 82
- 1.634688 0 1 tcp 10040 ---A--- 0 0.0 1.0 32 82
r 1.639688 0 1 tcp 10040 ------- 0 0.0 1.0 36 80
+ 1.639688 1 0 ack 40 ------- 0 1.0 0.0 31 83
- 1.639688 1 0 ack 40 ------- 0 1.0 0.0 31 83
r 1.644752 1 0 ack 40 ------- 0 1.0 0.0 31 83
r 1.655752 0 1 tcp 10040 ---A--- 0 0.0 1.0 32 82
+ 1.655752 1 0 ack 40 ------- 0 1.0 0.0 36 84
- 1.655752 1 0 ack 40 ------- 0 1.0 0.0 36 84
r 1.660816 1 0 ack 40 ------- 0 1.0 0.0 36 84
+ 1.660816 0 1 tcp 10040 ------- 0 0.0 1.0 37 85
- 1.660816 0 1 tcp 10040 ------- 0 0.0 1.0 37 85
+ 1.660816 0 1 tcp 10040 ------- 0 0.0 1.0 38 86
- 1.67688 0 1 tcp 10040 ------- 0 0.0 1.0 38 86
r 1.68188 0 1 tcp 10040 ------- 0 0.0 1.0 37 85
+ 1.68188 1 0 ack 40 ------- 0 1.0 0.0 37 87
- 1.68188 1 0 ack 40 ------- 0 1.0 0.0 37 87
r 1.686944 1 0 ack 40 ------- 0 1.0 0.0 37 87
+ 1.686944 0 1 tcp 10040 ------- 0 0.0 1.0 39 88
- 1.692944 0 1 tcp 10040 ------- 0 0.0 1.0 39 88
r 1.697944 0 1 tcp 10040 ------- 0 0.0 1.0 38 86
+ 1.697944 1 0 ack 40 ------- 0 1.0 0.0 38 89
- 1.697944 1 0 ack 40 ------- 0 1.0 0.0 38 89
r 1.703008 1 0 ack 40 ------- 0 1.0 0.0 38 89
+ 1.703008 0 1 tcp 10040 ------- 0 0.0 1.0 40 90
- 1.709008 0 1 tcp 10040 ------- 0 0.0 1.0 40 90
r 1.714008 0 1 tcp 10040 ------- 0 0.0 1.0 39 88
+ 1.714008 1 0 ack 40 ------- 0 1.0 0.0 39 91
- 1.714008 1 0 ack 40 ------- 0 1.0 0.0 39 91
r 1.719072 1 0 ack 40 ------- 0 1.0 0.0 39 91
+ 1.719072 0 1 tcp 10040 ------- 0 0.0 1.0 41 92
+ 1.719072 0 1 tcp 10040 ------- 0 0.0 1.0 42 93
d 1.719072 0 1 tcp 10040 ------- 0 0.0 1.0 42 93
- 1.725072 0 1 tcp 10040 ------- 0 0.0 1.0 41 92
r 1.730072 0 1 tcp 10040 ------- 0 0.0 1.0 40 90
+ 1.730072 1 0 ack 40 ------- 0 1.0 0.0 40 94
- 1.730072 1 0 ack 40 ------- 0 1.0 0.0 40 94
r 1.735136 1 0 ack 40 ------- 0 1.0 0.0 40 94
+ 1.735136 0 1 tcp 10040 ------- 0 0.0 1.0 43 95
- 1.741136 0 1 tcp 10040 ------- 0 0.0 1.0 43 95
r 1.746136 0 1 tcp 10040 ------- 0 0.0 1.0 41 92
+ 1.746136 1 0 ack 40 ------- 0 1.0 0.0 41 96
- 1.746136 1 0 ack 40 ------- 0 1.0 0.0 41 96
r 1.7512 1 0 ack 40 ------- 0 1.0 0.0 41 96
+ 1.7512 0 1 tcp 10040 ------- 0 0.0 1.0 44 97
- 1.7572 0 1 tcp 10040 ------- 0 0.0 1.0 44 97
r 1.7622 0 1 tcp 10040 ------- 0 0.0 1.0 43 95
+ 1.7622 1 0 ack 40 ------- 0 1.0 0.0 41 98
- 1.7622 1 0 ack 40 ------- 0 1.0 0.0 41 98
r 1.767264 1 0 ack 40 ------- 0 1.0 0.0 41 98
+ 1.767264 0 1 tcp 10040 ------- 0 0.0 1.0 45 99
- 1.773264 0 1 tcp 10040 ------- 0 0.0 1.0 45 99
r 1.778264 0 1 tcp 10040 ------- 0 0.0 1.0 44 97
+ 1.778264 1 0 ack 40 ------- 0 1.0 0.0 41 100
- 1.778264 1 0 ack 40 ------- 0 1.0 0.0 41 100
r 1.783328 1 0 ack 40 ------- 0 1.0 0.0 41 100
+ 1.783328 0 1 tcp 10040 ------- 0 0.0 1.0 46 101
- 1.789328 0 1 tcp 10040 ------- 0 0.0 1.0 46 101
r 1.794328 0 1 tcp 10040 ------- 0 0.0 1.0 45 99
+ 1.794328 1 0 ack 40 ------- 0 1.0 0.0 41 102
- 1.794328 1 0 ack 40 ------- 0 1.0 0.0 41 102
r 1.799392 1 0 ack 40 ------- 0 1.0 0.0 41 102
+ 1.799392 0 1 tcp 10040 ---A--- 0 0.0 1.0 42 103
- 1.805392 0 1 tcp 10040 ---A--- 0 0.0 1.0 42 103
r 1.810392 0 1 tcp 10040 ------- 0 0.0 1.0 46 101
+ 1.810392 1 0 ack 40 ------- 0 1.0 0.0 41 104
- 1.810392 1 0 ack 40 ------- 0 1.0 0.0 41 104
r 1.815456 1 0 ack 40 ------- 0 1.0 0.0 41 104
r 1.826456 0 1 tcp 10040 ---A--- 0 0.0 1.0 42 103
+ 1.826456 1 0 ack 40 ------- 0 1.0 0.0 46 105
- 1.826456 1 0 ack 40 ------- 0 1.0 0.0 46 105
r 1.83152 1 0 ack 40 ------- 0 1.0 0.0 46 105
+ 1.83152 0 1 tcp 10040 ------- 0 0.0 1.0 47 106
- 1.83152 0 1 tcp 10040 ------- 0 0.0 1.0 47 106
+ 1.83152 0 1 tcp 10040 ------- 0 0.0 1.0 48 107
- 1.847584 0 1 tcp 10040 ------- 0 0.0 1.0 48 107
r 1.852584 0 1 tcp 10040 ------- 0 0.0 1.0 47 106
+ 1.852584 1 0 ack 40 ------- 0 1.0 0.0 47 108
- 1.852584 1 0 ack 40 ------- 0 1.0 0.0 47 108
r 1.857648 1 0 ack 40 ------- 0 1.0 0.0 47 108
+ 1.857648 0 1 tcp 10040 ------- 0 0.0 1.0 49 109
- 1.863648 0 1 tcp 10040 ------- 0 0.0 1.0 49 109
r 1.868648 0 1 tcp 10040 ------- 0 0.0 1.0 48 107
+ 1.868648 1 0 ack 40 ------- 0 1.0 0.0 48 110
- 1.868648 1 0 ack 40 ------- 0 1.0 0.0 48 110
r 1.873712 1 0 ack 40 ------- 0 1.0 0.0 48 110
+ 1.873712 0 1 tcp 10040 ------- 0 0.0 1.0 50 111
- 1.879712 0 1 tcp 10040 ------- 0 0.0 1.0 50 111
r 1.884712 0 1 tcp 10040 ------- 0 0.0 1.0 49 109
+ 1.884712 1 0 ack 40 ------- 0 1.0 0.0 49 112
- 1.884712 1 0 ack 40 ------- 0 1.0 0.0 49 112
r 1.889776 1 0 ack 40 ------- 0 1.0 0.0 49 112
+ 1.889776 0 1 tcp 10040 ------- 0 0.0 1.0 51 113
+ 1.889776 0 1 tcp 10040 ------- 0 0.0 1.0 52 114
d 1.889776 0 1 tcp 10040 ------- 0 0.0 1.0 52 114
- 1.895776 0 1 tcp 10040 ------- 0 0.0 1.0 51 113
r 1.900776 0 1 tcp 10040 ------- 0 0.0 1.0 50 111
+ 1.900776 1 0 ack 40 ------- 0 1.0 0.0 50 115
- 1.900776 1 0 ack 40 ------- 0 1.0 0.0 50 115
r 1.90584 1 0 ack 40 ------- 0 1.0 0.0 50 115
+ 1.90584 0 1 tcp 10040 ------- 0 0.0 1.0 53 116
- 1.91184 0 1 tcp 10040 ------- 0 0.0 1.0 53 116
r 1.91684 0 1 tcp 10040 ------- 0 0.0 1.0 51 113
+ 1.91684 1 0 ack 40 ------- 0 1.0 0.0 51 117
- 1.91684 1 0 ack 40 ------- 0 1.0 0.0 51 117
r 1.921904 1 0 ack 40 ------- 0 1.0 0.0 51 117
+ 1.921904 0 1 tcp 10040 ------- 0 0.0 1.0 54 118
- 1.927904 0 1 tcp 10040 ------- 0 0.0 1.0 54 118
r 1.932904 0 1 tcp 10040 ------- 0 0.0 1.0 53 116
+ 1.932904 1 0 ack 40 ------- 0 1.0 0.0 51 119
- 1.932904 1 0 ack 40 ------- 0 1.0 0.0 51 119
r 1.937968 1 0 ack 40 ------- 0 1.0 0.0 51 119
+ 1.937968 0 1 tcp 10040 ------- 0 0.0 1.0 55 120
- 1.943968 0 1 tcp 10040 ------- 0 0.0 1.0 55 120
r 1.948968 0 1 tcp 10040 ------- 0 0.0 1.0 54 118
+ 1.948968 1 0 ack 40 ------- 0 1.0 0.0 51 121
- 1.948968 1 0 ack 40 ------- 0 1.0 0.0 51 121
r 1.954032 1 0 ack 40 ------- 0 1.0 0.0 51 121
+ 1.954032 0 1 tcp 10040 ------- 0 0.0 1.0 56 122
- 1.960032 0 1 tcp 10040 ------- 0 0.0 1.0 56 122
r 1.965032 0 1 tcp 10040 ------- 0 0.0 1.0 55 120
+ 1.965032 1 0 ack 40 ------- 0 1.0 0.0 51 123
- 1.965032 1 0 ack 40 ------- 0 1.0 0.0 51 123
r 1.970096 1 0 ack 40 ------- 0 1.0 0.0 51 123
+ 1.970096 0 1 tcp 10040 ---A--- 0 0.0 1.0 52 124
- 1.976096 0 1 tcp 10040 ---A--- 0 0.0 1.0 52 124
r 1.981096 0 1 tcp 10040 ------- 0 0.0 1.0 56 122
+ 1.981096 1 0 ack 40 ------- 0 1.0 0.0 51 125
- 1.981096 1 0 ack 40 ------- 0 1.0 0.0 51 125
r 1.98616 1 0 ack 40 ------- 0 1.0 0.0 51 125
r 1.99716 0 1 tcp 10040 ---A--- 0 0.0 1.0 52 124
+ 1.99716 1 0 ack 40 ------- 0 1.0 0.0 56 126
- 1.99716 1 0 ack 40 ------- 0 1.0 0.0 56 126
+ 2 2 1 tcp 40 ------- 0 2.0 1.1 0 127
- 2 2 1 tcp 40 ------- 0 2.0 1.1 0 127
r 2.002224 1 0 ack 40 ------- 0 1.0 0.0 56 126
+ 2.002224 0 1 tcp 10040 ------- 0 0.0 1.0 57 128
- 2.002224 0 1 tcp 10040 ------- 0 0.0 1.0 57 128
+ 2.002224 0 1 tcp 10040 ------- 0 0.0 1.0 58 129
r 2.005064 2 1 tcp 40 ------- 0 2.0 1.1 0 127
+ 2.005064 1 2 ack 40 ------- 0 1.1 2.0 0 130
- 2.005064 1 2 ack 40 ------- 0 1.1 2.0 0 130
r 2.010128 1 2 ack 40 ------- 0 1.1 2.0 0 130
+ 2.010128 2 1 tcp 10040 ------- 0 2.0 1.1 1 131
- 2.010128 2 1 tcp 10040 ------- 0 2.0 1.1 1 131
+ 2.010128 2 1 tcp 10040 ------- 0 2.0 1.1 2 132
- 2.018288 0 1 tcp 10040 ------- 0 0.0 1.0 58 129
r 2.023288 0 1 tcp 10040 ------- 0 0.0 1.0 57 128
+ 2.023288 1 0 ack 40 ------- 0 1.0 0.0 57 133
- 2.023288 1 0 ack 40 ------- 0 1.0 0.0 57 133
- 2.026192 2 1 tcp 10040 ------- 0 2.0 1.1 2 132
r 2.028352 1 0 ack 40 ------- 0 1.0 0.0 57 133
+ 2.028352 0 1 tcp 10040 ------- 0 0.0 1.0 59 134
r 2.031192 2 1 tcp 10040 ------- 0 2.0 1.1 1 131
+ 2.031192 1 2 ack 40 ------- 0 1.1 2.0 1 135
- 2.031192 1 2 ack 40 ------- 0 1.1 2.0 1 135
- 2.034352 0 1 tcp 10040 ------- 0 0.0 1.0 59 134
r 2.036256 1 2 ack 40 ------- 0 1.1 2.0 1 135
+ 2.036256 2 1 tcp 10040 ------- 0 2.0 1.1 3 136
+ 2.036256 2 1 tcp 10040 ------- 0 2.0 1.1 4 137
d 2.036256 2 1 tcp 10040 ------- 0 2.0 1.1 4 137
r 2.039352 0 1 tcp 10040 ------- 0 0.0 1.0 58 129
+ 2.039352 1 0 ack 40 ------- 0 1.0 0.0 58 138
- 2.039352 1 0 ack 40 ------- 0 1.0 0.0 58 138
- 2.042256 2 1 tcp 10040 ------- 0 2.0 1.1 3 136
r 2.044416 1 0 ack 40 ------- 0 1.0 0.0 58 138
+ 2.044416 0 1 tcp 10040 ------- 0 0.0 1.0 60 139
r 2.047256 2 1 tcp 10040 ------- 0 2.0 1.1 2 132
+ 2.047256 1 2 ack 40 ------- 0 1.1 2.0 2 140
- 2.047256 1 2 ack 40 ------- 0 1.1 2.0 2 140
- 2.050416 0 1 tcp 10040 ------- 0 0.0 1.0 60 139
r 2.05232 1 2 ack 40 ------- 0 1.1 2.0 2 140
+ 2.05232 2 1 tcp 10040 ------- 0 2.0 1.1 5 141
+ 2.05232 2 1 tcp 10040 ------- 0 2.0 1.1 6 142
d 2.05232 2 1 tcp 10040 ------- 0 2.0 1.1 6 142
r 2.055416 0 1 tcp 10040 ------- 0 0.0 1.0 59 134
+ 2.055416 1 0 ack 40 ------- 0 1.0 0.0 59 143
- 2.055416 1 0 ack 40 ------- 0 1.0 0.0 59 143
- 2.05832 2 1 tcp 10040 ------- 0 2.0 1.1 5 141
r 2.06048 1 0 ack 40 ------- 0 1.0 0.0 59 143
+ 2.06048 0 1 tcp 10040 ------- 0 0.0 1.0 61 144
+ 2.06048 0 1 tcp 10040 ------- 0 0.0 1.0 62 145
d 2.06048 0 1 tcp 10040 ------- 0 0.0 1.0 62 145
r 2.06332 2 1 tcp 10040 ------- 0 2.0 1.1 3 136
+ 2.06332 1 2 ack 40 ------- 0 1.1 2.0 3 146
- 2.06332 1 2 ack 40 ------- 0 1.1 2.0 3 146
- 2.06648 0 1 tcp 10040 ------- 0 0.0 1.0 61 144
r 2.068384 1 2 ack 40 ------- 0 1.1 2.0 3 146
+ 2.068384 2 1 tcp 10040 ------- 0 2.0 1.1 7 147
+ 2.068384 2 1 tcp 10040 ------- 0 2.0 1.1 8 148
d 2.068384 2 1 tcp 10040 ------- 0 2.0 1.1 8 148
r 2.07148 0 1 tcp 10040 ------- 0 0.0 1.0 60 139
+ 2.07148 1 0 ack 40 ------- 0 1.0 0.0 60 149
- 2.07148 1 0 ack 40 ------- 0 1.0 0.0 60 149
- 2.074384 2 1 tcp 10040 ------- 0 2.0 1.1 7 147
r 2.076544 1 0 ack 40 ------- 0 1.0 0.0 60 149
+ 2.076544 0 1 tcp 10040 ------- 0 0.0 1.0 63 150
r 2.079384 2 1 tcp 10040 ------- 0 2.0 1.1 5 141
+ 2.079384 1 2 ack 40 ------- 0 1.1 2.0 3 151
- 2.079384 1 2 ack 40 ------- 0 1.1 2.0 3 151
- 2.082544 0 1 tcp 10040 ------- 0 0.0 1.0 63 150
r 2.084448 1 2 ack 40 ------- 0 1.1 2.0 3 151
+ 2.084448 2 1 tcp 10040 ------- 0 2.0 1.1 9 152
r 2.087544 0 1 tcp 10040 ------- 0 0.0 1.0 61 144
+ 2.087544 1 0 ack 40 ------- 0 1.0 0.0 61 153
- 2.087544 1 0 ack 40 ------- 0 1.0 0.0 61 153
- 2.090448 2 1 tcp 10040 ------- 0 2.0 1.1 9 152
r 2.092608 1 0 ack 40 ------- 0 1.0 0.0 61 153
+ 2.092608 0 1 tcp 10040 ------- 0 0.0 1.0 64 154
r 2.095448 2 1 tcp 10040 ------- 0 2.0 1.1 7 147
+ 2.095448 1 2 ack 40 ------- 0 1.1 2.0 3 155
- 2.095448 1 2 ack 40 ------- 0 1.1 2.0 3 155
- 2.098608 0 1 tcp 10040 ------- 0 0.0 1.0 64 154
r 2.100512 1 2 ack 40 ------- 0 1.1 2.0 3 155
+ 2.100512 2 1 tcp 10040 ------- 0 2.0 1.1 10 156
r 2.103608 0 1 tcp 10040 ------- 0 0.0 1.0 63 150
+ 2.103608 1 0 ack 40 ------- 0 1.0 0.0 61 157
- 2.103608 1 0 ack 40 ------- 0 1.0 0.0 61 157
- 2.106512 2 1 tcp 10040 ------- 0 2.0 1.1 10 156
r 2.108672 1 0 ack 40 ------- 0 1.0 0.0 61 157
+ 2.108672 0 1 tcp 10040 ------- 0 0.0 1.0 65 158
r 2.111512 2 1 tcp 10040 ------- 0 2.0 1.1 9 152
+ 2.111512 1 2 ack 40 ------- 0 1.1 2.0 3 159
- 2.111512 1 2 ack 40 ------- 0 1.1 2.0 3 159
- 2.114672 0 1 tcp 10040 ------- 0 0.0 1.0 65 158
r 2.116576 1 2 ack 40 ------- 0 1.1 2.0 3 159
+ 2.116576 2 1 tcp 10040 ---A--- 0 2.0 1.1 4 160
r 2.119672 0 1 tcp 10040 ------- 0 0.0 1.0 64 154
+ 2.119672 1 0 ack 40 ------- 0 1.0 0.0 61 161
- 2.119672 1 0 ack 40 ------- 0 1.0 0.0 61 161
- 2.122576 2 1 tcp 10040 ---A--- 0 2.0 1.1 4 160
r 2.124736 1 0 ack 40 ------- 0 1.0 0.0 61 161
+ 2.124736 0 1 tcp 10040 ------- 0 0.0 1.0 66 162
r 2.127576 2 1 tcp 10040 ------- 0 2.0 1.1 10 156
+ 2.127576 1 2 ack 40 ------- 0 1.1 2.0 3 163
- 2.127576 1 2 ack 40 ------- 0 1.1 2.0 3 163
- 2.130736 0 1 tcp 10040 ------- 0 0.0 1.0 66 162
r 2.13264 1 2 ack 40 ------- 0 1.1 2.0 3 163
r 2.135736 0 1 tcp 10040 ------- 0 0.0 1.0 65 158
+ 2.135736 1 0 ack 40 ------- 0 1.0 0.0 61 164
- 2.135736 1 0 ack 40 ------- 0 1.0 0.0 61 164
r 2.1408 1 0 ack 40 ------- 0 1.0 0.0 61 164
+ 2.1408 0 1 tcp 10040 ---A--- 0 0.0 1.0 62 165
r 2.14364 2 1 tcp 10040 ---A--- 0 2.0 1.1 4 160
+ 2.14364 1 2 ack 40 ------- 0 1.1 2.0 5 166
- 2.14364 1 2 ack 40 ------- 0 1.1 2.0 5 166
- 2.1468 0 1 tcp 10040 ---A--- 0 0.0 1.0 62 165
r 2.148704 1 2 ack 40 ------- 0 1.1 2.0 5 166
+ 2.148704 2 1 tcp 10040 ------- 0 2.0 1.1 6 167
- 2.148704 2 1 tcp 10040 ------- 0 2.0 1.1 6 167
+ 2.148704 2 1 tcp 10040 ------- 0 2.0 1.1 7 168
r 2.1518 0 1 tcp 10040 ------- 0 0.0 1.0 66 162
+ 2.1518 1 0 ack 40 ------- 0 1.0 0.0 61 169
- 2.1518 1 0 ack 40 ------- 0 1.0 0.0 61 169
r 2.156864 1 0 ack 40 ------- 0 1.0 0.0 61 169
- 2.164768 2 1 tcp 10040 ------- 0 2.0 1.1 7 168
r 2.167864 0 1 tcp 10040 ---A--- 0 0.0 1.0 62 165
+ 2.167864 1 0 ack 40 ------- 0 1.0 0.0 66 170
- 2.167864 1 0 ack 40 ------- 0 1.0 0.0 66 170
r 2.169768 2 1 tcp 10040 ------- 0 2.0 1.1 6 167
+ 2.169768 1 2 ack 40 ------- 0 1.1 2.0 7 171
- 2.169768 1 2 ack 40 ------- 0 1.1 2.0 7 171
r 2.172928 1 0 ack 40 ------- 0 1.0 0.0 66 170
+ 2.172928 0 1 tcp 10040 ------- 0 0.0 1.0 67 172
- 2.172928 0 1 tcp 10040 ------- 0 0.0 1.0 67 172
+ 2.172928 0 1 tcp 10040 ------- 0 0.0 1.0 68 173
r 2.174832 1 2 ack 40 ------- 0 1.1 2.0 7 171
+ 2.174832 2 1 tcp 10040 ------- 0 2.0 1.1 8 174
+ 2.174832 2 1 tcp 10040 ------- 0 2.0 1.1 9 175
d 2.174832 2 1 tcp 10040 ------- 0 2.0 1.1 9 175
- 2.180832 2 1 tcp 10040 ------- 0 2.0 1.1 8 174
r 2.185832 2 1 tcp 10040 ------- 0 2.0 1.1 7 168
+ 2.185832 1 2 ack 40 ------- 0 1.1 2.0 7 176
- 2.185832 1 2 ack 40 ------- 0 1.1 2.0 7 176
- 2.188992 0 1 tcp 10040 ------- 0 0.0 1.0 68 173
r 2.190896 1 2 ack 40 ------- 0 1.1 2.0 7 176
+ 2.190896 2 1 tcp 10040 ------- 0 2.0 1.1 10 177
r 2.193992 0 1 tcp 10040 ------- 0 0.0 1.0 67 172
+ 2.193992 1 0 ack 40 ------- 0 1.0 0.0 67 178
- 2.193992 1 0 ack 40 ------- 0 1.0 0.0 67 178
- 2.196896 2 1 tcp 10040 ------- 0 2.0 1.1 10 177
r 2.199056 1 0 ack 40 ------- 0 1.0 0.0 67 178
+ 2.199056 0 1 tcp 10040 ------- 0 0.0 1.0 69 179
r 2.201896 2 1 tcp 10040 ------- 0 2.0 1.1 8 174
+ 2.201896 1 2 ack 40 ------- 0 1.1 2.0 10 180
- 2.201896 1 2 ack 40 ------- 0 1.1 2.0 10 180
- 2.205056 0 1 tcp 10040 ------- 0 0.0 1.0 69 179
r 2.20696 1 2 ack 40 ------- 0 1.1 2.0 10 180
+ 2.20696 2 1 tcp 10040 ------- 0 2.0 1.1 11 181
+ 2.20696 2 1 tcp 10040 ------- 0 2.0 1.1 12 182
d 2.20696 2 1 tcp 10040 ------- 0 2.0 1.1 12 182
r 2.210056 0 1 tcp 10040 ------- 0 0.0 1.0 68 173
+ 2.210056 1 0 ack 40 ------- 0 1.0 0.0 68 183
- 2.210056 1 0 ack 40 ------- 0 1.0 0.0 68 183
- 2.21296 2 1 tcp 10040 ------- 0 2.0 1.1 11 181
r 2.21512 1 0 ack 40 ------- 0 1.0 0.0 68 183
+ 2.21512 0 1 tcp 10040 ------- 0 0.0 1.0 70 184
r 2.21796 2 1 tcp 10040 ------- 0 2.0 1.1 10 177
+ 2.21796 1 2 ack 40 ------- 0 1.1 2.0 10 185
- 2.21796 1 2 ack 40 ------- 0 1.1 2.0 10 185
- 2.22112 0 1 tcp 10040 ------- 0 0.0 1.0 70 184
r 2.223024 1 2 ack 40 ------- 0 1.1 2.0 10 185
+ 2.223024 2 1 tcp 10040 ------- 0 2.0 1.1 13 186
r 2.22612 0 1 tcp 10040 ------- 0 0.0 1.0 69 179
+ 2.22612 1 0 ack 40 ------- 0 1.0 0.0 69 187
- 2.22612 1 0 ack 40 ------- 0 1.0 0.0 69 187
- 2.229024 2 1 tcp 10040 ------- 0 2.0 1.1 13 186
r 2.231184 1 0 ack 40 ------- 0 1.0 0.0 69 187
+ 2.231184 0 1 tcp 10040 ------- 0 0.0 1.0 71 188
+ 2.231184 0 1 tcp 10040 ------- 0 0.0 1.0 72 189
d 2.231184 0 1 tcp 10040 ------- 0 0.0 1.0 72 189
r 2.234024 2 1 tcp 10040 ------- 0 2.0 1.1 11 181
+ 2.234024 1 2 ack 40 ------- 0 1.1 2.0 11 190
- 2.234024 1 2 ack 40 ------- 0 1.1 2.0 11 190
- 2.237184 0 1 tcp 10040 ------- 0 0.0 1.0 71 188
r 2.239088 1 2 ack 40 ------- 0 1.1 2.0 11 190
+ 2.239088 2 1 tcp 10040 ------- 0 2.0 1.1 14 191
r 2.242184 0 1 tcp 10040 ------- 0 0.0 1.0 70 184
+ 2.242184 1 0 ack 40 ------- 0 1.0 0.0 70 192
- 2.242184 1 0 ack 40 ------- 0 1.0 0.0 70 192
- 2.245088 2 1 tcp 10040 ------- 0 2.0 1.1 14 191
r 2.247248 1 0 ack 40 ------- 0 1.0 0.0 70 192
+ 2.247248 0 1 tcp 10040 ------- 0 0.0 1.0 73 193
r 2.250088 2 1 tcp 10040 ------- 0 2.0 1.1 13 186
+ 2.250088 1 2 ack 40 ------- 0 1.1 2.0 11 194
- 2.250088 1 2 ack 40 ------- 0 1.1 2.0 11 194
- 2.253248 0 1 tcp 10040 ------- 0 0.0 1.0 73 193
r 2.255152 1 2 ack 40 ------- 0 1.1 2.0 11 194
+ 2.255152 2 1 tcp 10040 ------- 0 2.0 1.1 15 195
r 2.258248 0 1 tcp 10040 ------- 0 0.0 1.0 71 188
+ 2.258248 1 0 ack 40 ------- 0 1.0 0.0 71 196
- 2.258248 1 0 ack 40 ------- 0 1.0 0.0 71 196
- 2.261152 2 1 tcp 10040 ------- 0 2.0 1.1 15 195
r 2.263312 1 0 ack 40 ------- 0 1.0 0.0 71 196
+ 2.263312 0 1 tcp 10040 ------- 0 0.0 1.0 74 197
r 2.266152 2 1 tcp 10040 ------- 0 2.0 1.1 14 191
+ 2.266152 1 2 ack 40 ------- 0 1.1 2.0 11 198
- 2.266152 1 2 ack 40 ------- 0 1.1 2.0 11 198
- 2.269312 0 1 tcp 10040 ------- 0 0.0 1.0 74 197
r 2.271216 1 2 ack 40 ------- 0 1.1 2.0 11 198
+ 2.271216 2 1 tcp 10040 ------- 0 2.0 1.1 16 199
r 2.274312 0 1 tcp 10040 ------- 0 0.0 1.0 73 193
+ 2.274312 1 0 ack 40 ------- 0 1.0 0.0 71 200
- 2.274312 1 0 ack 40 ------- 0 1.0 0.0 71 200
- 2.277216 2 1 tcp 10040 ------- 0 2.0 1.1 16 199
r 2.279376 1 0 ack 40 ------- 0 1.0 0.0 71 200
+ 2.279376 0 1 tcp 10040 ------- 0 0.0 1.0 75 201
r 2.282216 2 1 tcp 10040 ------- 0 2.0 1.1 15 195
+ 2.282216 1 2 ack 40 ------- 0 1.1 2.0 11 202
- 2.282216 1 2 ack 40 ------- 0 1.1 2.0 11 202
- 2.285376 0 1 tcp 10040 ------- 0 0.0 1.0 75 201
r 2.28728 1 2 ack 40 ------- 0 1.1 2.0 11 202
+ 2.28728 2 1 tcp 10040 ---A--- 0 2.0 1.1 12 203
r 2.290376 0 1 tcp 10040 ------- 0 0.0 1.0 74 197
+ 2.290376 1 0 ack 40 ------- 0 1.0 0.0 71 204
- 2.290376 1 0 ack 40 ------- 0 1.0 0.0 71 204
- 2.29328 2 1 tcp 10040 ---A--- 0 2.0 1.1 12 203
r 2.29544 1 0 ack 40 ------- 0 1.0 0.0 71 204
+ 2.29544 0 1 tcp 10040 ------- 0 0.0 1.0 76 205
r 2.29828 2 1 tcp 10040 ------- 0 2.0 1.1 16 199
+ 2.29828 1 2 ack 40 ------- 0 1.1 2.0 11 206
- 2.29828 1 2 ack 40 ------- 0 1.1 2.0 11 206
- 2.30144 0 1 tcp 10040 ------- 0 0.0 1.0 76 205
r 2.303344 1 2 ack 40 ------- 0 1.1 2.0 11 206
r 2.30644 0 1 tcp 10040 ------- 0 0.0 1.0 75 201
+ 2.30644 1 0 ack 40 ------- 0 1.0 0.0 71 207
- 2.30644 1 0 ack 40 ------- 0 1.0 0.0 71 207
r 2.311504 1 0 ack 40 ------- 0 1.0 0.0 71 207
+ 2.311504 0 1 tcp 10040 ---A--- 0 0.0 1.0 72 208
r 2.314344 2 1 tcp 10040 ---A--- 0 2.0 1.1 12 203
+ 2.314344 1 2 ack 40 ------- 0 1.1 2.0 16 209
- 2.314344 1 2 ack 40 ------- 0 1.1 2.0 16 209
- 2.317504 0 1 tcp 10040 ---A--- 0 0.0 1.0 72 208
r 2.319408 1 2 ack 40 ------- 0 1.1 2.0 16 209
+ 2.319408 2 1 tcp 10040 ------- 0 2.0 1.1 17 210
- 2.319408 2 1 tcp 10040 ------- 0 2.0 1.1 17 210
+ 2.319408 2 1 tcp 10040 ------- 0 2.0 1.1 18 211
r 2.322504 0 1 tcp 10040 ------- 0 0.0 1.0 76 205
+ 2.322504 1 0 ack 40 ------- 0 1.0 0.0 71 212
- 2.322504 1 0 ack 40 ------- 0 1.0 0.0 71 212
r 2.327568 1 0 ack 40 ------- 0 1.0 0.0 71 212
- 2.335472 2 1 tcp 10040 ------- 0 2.0 1.1 18 211
r 2.338568 0 1 tcp 10040 ---A--- 0 0.0 1.0 72 208
+ 2.338568 1 0 ack 40 ------- 0 1.0 0.0 76 213
- 2.338568 1 0 ack 40 ------- 0 1.0 0.0 76 213
r 2.340472 2 1 tcp 10040 ------- 0 2.0 1.1 17 210
+ 2.340472 1 2 ack 40 ------- 0 1.1 2.0 17 214
- 2.340472 1 2 ack 40 ------- 0 1.1 2.0 17 214
r 2.343632 1 0 ack 40 ------- 0 1.0 0.0 76 213
+ 2.343632 0 1 tcp 10040 ------- 0 0.0 1.0 77 215
- 2.343632 0 1 tcp 10040 ------- 0 0.0 1.0 77 215
+ 2.343632 0 1 tcp 10040 ------- 0 0.0 1.0 78 216