V -t * -v 1.0a5 -a 0
A -t * -n 1 -p 0 -o 0x7fffffff -c 30 -a 1
A -t * -h 1 -m 1073741823 -s 0
c -t * -i 0 -n Blue
n -t * -a 17 -s 17 -S UP -v circle -c black -i black
n -t * -a 0 -s 0 -S UP -v circle -c black -i black
n -t * -a 18 -s 18 -S UP -v circle -c black -i black
n -t * -a 1 -s 1 -S UP -v circle -c black -i black
n -t * -a 20 -s 20 -S UP -v circle -c black -i black
n -t * -a 19 -s 19 -S UP -v circle -c black -i black
n -t * -a 2 -s 2 -S UP -v circle -c black -i black
n -t * -a 3 -s 3 -S UP -v circle -c black -i black
n -t * -a 4 -s 4 -S UP -v circle -c black -i black
n -t * -a 5 -s 5 -S UP -v circle -c black -i black
n -t * -a 6 -s 6 -S UP -v circle -c black -i black
n -t * -a 7 -s 7 -S UP -v circle -c black -i black
n -t * -a 8 -s 8 -S UP -v circle -c black -i black
n -t * -a 9 -s 9 -S UP -v circle -c black -i black
n -t * -a 10 -s 10 -S UP -v circle -c black -i black
n -t * -a 11 -s 11 -S UP -v circle -c black -i black
n -t * -a 12 -s 12 -S UP -v circle -c black -i black
n -t * -a 13 -s 13 -S UP -v circle -c black -i black
n -t * -a 14 -s 14 -S UP -v circle -c black -i black
n -t * -a 15 -s 15 -S UP -v circle -c black -i black
n -t * -a 16 -s 16 -S UP -v circle -c black -i black
l -t * -s 0 -d 1 -S UP -r 1000000 -D 0.01 -c black
l -t * -s 1 -d 2 -S UP -r 1000000 -D 0.01 -c black
l -t * -s 2 -d 3 -S UP -r 1000000 -D 0.01 -c black
l -t * -s 3 -d 4 -S UP -r 1000000 -D 0.01 -c black
l -t * -s 4 -d 5 -S UP -r 1000000 -D 0.01 -c black
l -t * -s 5 -d 6 -S UP -r 1000000 -D 0.01 -c black
l -t * -s 6 -d 7 -S UP -r 1000000 -D 0.01 -c black
l -t * -s 7 -d 8 -S UP -r 1000000 -D 0.01 -c black
l -t * -s 8 -d 9 -S UP -r 1000000 -D 0.01 -c black
l -t * -s 9 -d 10 -S UP -r 1000000 -D 0.01 -c black
l -t * -s 10 -d 11 -S UP -r 1000000 -D 0.01 -c black
l -t * -s 11 -d 12 -S UP -r 1000000 -D 0.01 -c black
l -t * -s 12 -d 13 -S UP -r 1000000 -D 0.01 -c black
l -t * -s 13 -d 14 -S UP -r 1000000 -D 0.01 -c black
l -t * -s 14 -d 15 -S UP -r 1000000 -D 0.01 -c black
l -t * -s 15 -d 16 -S UP -r 1000000 -D 0.01 -c black
l -t * -s 16 -d 17 -S UP -r 1000000 -D 0.01 -c black
l -t * -s 17 -d 18 -S UP -r 1000000 -D 0.01 -c black
l -t * -s 18 -d 19 -S UP -r 1000000 -D 0.01 -c black
l -t * -s 19 -d 20 -S UP -r 1000000 -D 0.01 -c black
l -t * -s 20 -d 0 -S UP -r 1000000 -D 0.01 -c black
+ -t 0 -s 0 -d 1 -p tcp -e 40 -c 0 -i 0 -a 0 -x {0.0 5.1 0 ------- null}
- -t 0 -s 0 -d 1 -p tcp -e 40 -c 0 -i 0 -a 0 -x {0.0 5.1 0 ------- null}
h -t 0 -s 0 -d 1 -p tcp -e 40 -c 0 -i 0 -a 0 -x {0.0 5.1 -1 ------- null}
+ -t 0 -s 1 -d 2 -p tcp -e 40 -c 0 -i 1 -a 0 -x {1.0 6.1 0 ------- null}
- -t 0 -s 1 -d 2 -p tcp -e 40 -c 0 -i 1 -a 0 -x {1.0 6.1 0 ------- null}
h -t 0 -s 1 -d 2 -p tcp -e 40 -c 0 -i 1 -a 0 -x {1.0 6.1 -1 ------- null}
+ -t 0 -s 2 -d 3 -p tcp -e 40 -c 0 -i 2 -a 0 -x {2.0 7.1 0 ------- null}
- -t 0 -s 2 -d 3 -p tcp -e 40 -c 0 -i 2 -a 0 -x {2.0 7.1 0 ------- null}
h -t 0 -s 2 -d 3 -p tcp -e 40 -c 0 -i 2 -a 0 -x {2.0 7.1 -1 ------- null}
+ -t 0 -s 3 -d 4 -p tcp -e 40 -c 0 -i 3 -a 0 -x {3.0 8.1 0 ------- null}
- -t 0 -s 3 -d 4 -p tcp -e 40 -c 0 -i 3 -a 0 -x {3.0 8.1 0 ------- null}
h -t 0 -s 3 -d 4 -p tcp -e 40 -c 0 -i 3 -a 0 -x {3.0 8.1 -1 ------- null}
+ -t 0 -s 4 -d 5 -p tcp -e 40 -c 0 -i 4 -a 0 -x {4.0 9.1 0 ------- null}
- -t 0 -s 4 -d 5 -p tcp -e 40 -c 0 -i 4 -a 0 -x {4.0 9.1 0 ------- null}
h -t 0 -s 4 -d 5 -p tcp -e 40 -c 0 -i 4 -a 0 -x {4.0 9.1 -1 ------- null}
+ -t 0 -s 5 -d 6 -p tcp -e 40 -c 0 -i 5 -a 0 -x {5.0 10.1 0 ------- null}
- -t 0 -s 5 -d 6 -p tcp -e 40 -c 0 -i 5 -a 0 -x {5.0 10.1 0 ------- null}
h -t 0 -s 5 -d 6 -p tcp -e 40 -c 0 -i 5 -a 0 -x {5.0 10.1 -1 ------- null}
+ -t 0 -s 6 -d 7 -p tcp -e 40 -c 0 -i 6 -a 0 -x {6.0 11.1 0 ------- null}
- -t 0 -s 6 -d 7 -p tcp -e 40 -c 0 -i 6 -a 0 -x {6.0 11.1 0 ------- null}
h -t 0 -s 6 -d 7 -p tcp -e 40 -c 0 -i 6 -a 0 -x {6.0 11.1 -1 ------- null}
+ -t 0 -s 7 -d 8 -p tcp -e 40 -c 0 -i 7 -a 0 -x {7.0 12.1 0 ------- null}
- -t 0 -s 7 -d 8 -p tcp -e 40 -c 0 -i 7 -a 0 -x {7.0 12.1 0 ------- null}
h -t 0 -s 7 -d 8 -p tcp -e 40 -c 0 -i 7 -a 0 -x {7.0 12.1 -1 ------- null}
+ -t 0 -s 8 -d 9 -p tcp -e 40 -c 0 -i 8 -a 0 -x {8.0 13.1 0 ------- null}
- -t 0 -s 8 -d 9 -p tcp -e 40 -c 0 -i 8 -a 0 -x {8.0 13.1 0 ------- null}
h -t 0 -s 8 -d 9 -p tcp -e 40 -c 0 -i 8 -a 0 -x {8.0 13.1 -1 ------- null}
+ -t 0 -s 9 -d 10 -p tcp -e 40 -c 0 -i 9 -a 0 -x {9.0 14.1 0 ------- null}
- -t 0 -s 9 -d 10 -p tcp -e 40 -c 0 -i 9 -a 0 -x {9.0 14.1 0 ------- null}
h -t 0 -s 9 -d 10 -p tcp -e 40 -c 0 -i 9 -a 0 -x {9.0 14.1 -1 ------- null}
+ -t 0 -s 10 -d 11 -p tcp -e 40 -c 0 -i 10 -a 0 -x {10.0 15.1 0 ------- null}
- -t 0 -s 10 -d 11 -p tcp -e 40 -c 0 -i 10 -a 0 -x {10.0 15.1 0 ------- null}
h -t 0 -s 10 -d 11 -p tcp -e 40 -c 0 -i 10 -a 0 -x {10.0 15.1 -1 ------- null}
+ -t 0 -s 11 -d 12 -p tcp -e 40 -c 0 -i 11 -a 0 -x {11.0 16.1 0 ------- null}
- -t 0 -s 11 -d 12 -p tcp -e 40 -c 0 -i 11 -a 0 -x {11.0 16.1 0 ------- null}
h -t 0 -s 11 -d 12 -p tcp -e 40 -c 0 -i 11 -a 0 -x {11.0 16.1 -1 ------- null}
+ -t 0 -s 12 -d 13 -p tcp -e 40 -c 0 -i 12 -a 0 -x {12.0 17.1 0 ------- null}
- -t 0 -s 12 -d 13 -p tcp -e 40 -c 0 -i 12 -a 0 -x {12.0 17.1 0 ------- null}
h -t 0 -s 12 -d 13 -p tcp -e 40 -c 0 -i 12 -a 0 -x {12.0 17.1 -1 ------- null}
+ -t 0 -s 13 -d 14 -p tcp -e 40 -c 0 -i 13 -a 0 -x {13.0 18.1 0 ------- null}
- -t 0 -s 13 -d 14 -p tcp -e 40 -c 0 -i 13 -a 0 -x {13.0 18.1 0 ------- null}
h -t 0 -s 13 -d 14 -p tcp -e 40 -c 0 -i 13 -a 0 -x {13.0 18.1 -1 ------- null}
+ -t 0 -s 14 -d 15 -p tcp -e 40 -c 0 -i 14 -a 0 -x {14.0 19.1 0 ------- null}
- -t 0 -s 14 -d 15 -p tcp -e 40 -c 0 -i 14 -a 0 -x {14.0 19.1 0 ------- null}
h -t 0 -s 14 -d 15 -p tcp -e 40 -c 0 -i 14 -a 0 -x {14.0 19.1 -1 ------- null}
+ -t 0 -s 15 -d 16 -p tcp -e 40 -c 0 -i 15 -a 0 -x {15.0 20.1 0 ------- null}
- -t 0 -s 15 -d 16 -p tcp -e 40 -c 0 -i 15 -a 0 -x {15.0 20.1 0 ------- null}
h -t 0 -s 15 -d 16 -p tcp -e 40 -c 0 -i 15 -a 0 -x {15.0 20.1 -1 ------- null}
r -t 0.01032 -s 0 -d 1 -p tcp -e 40 -c 0 -i 0 -a 0 -x {0.0 5.1 0 ------- null}
+ -t 0.01032 -s 1 -d 2 -p tcp -e 40 -c 0 -i 0 -a 0 -x {0.0 5.1 0 ------- null}
- -t 0.01032 -s 1 -d 2 -p tcp -e 40 -c 0 -i 0 -a 0 -x {0.0 5.1 0 ------- null}
h -t 0.01032 -s 1 -d 2 -p tcp -e 40 -c 0 -i 0 -a 0 -x {0.0 5.1 -1 ------- null}
r -t 0.01032 -s 1 -d 2 -p tcp -e 40 -c 0 -i 1 -a 0 -x {1.0 6.1 0 ------- null}
+ -t 0.01032 -s 2 -d 3 -p tcp -e 40 -c 0 -i 1 -a 0 -x {1.0 6.1 0 ------- null}
- -t 0.01032 -s 2 -d 3 -p tcp -e 40 -c 0 -i 1 -a 0 -x {1.0 6.1 0 ------- null}
h -t 0.01032 -s 2 -d 3 -p tcp -e 40 -c 0 -i 1 -a 0 -x {1.0 6.1 -1 ------- null}
r -t 0.01032 -s 2 -d 3 -p tcp -e 40 -c 0 -i 2 -a 0 -x {2.0 7.1 0 ------- null}
+ -t 0.01032 -s 3 -d 4 -p tcp -e 40 -c 0 -i 2 -a 0 -x {2.0 7.1 0 ------- null}
- -t 0.01032 -s 3 -d 4 -p tcp -e 40 -c 0 -i 2 -a 0 -x {2.0 7.1 0 ------- null}
h -t 0.01032 -s 3 -d 4 -p tcp -e 40 -c 0 -i 2 -a 0 -x {2.0 7.1 -1 ------- null}
r -t 0.01032 -s 3 -d 4 -p tcp -e 40 -c 0 -i 3 -a 0 -x {3.0 8.1 0 ------- null}
+ -t 0.01032 -s 4 -d 5 -p tcp -e 40 -c 0 -i 3 -a 0 -x {3.0 8.1 0 ------- null}
- -t 0.01032 -s 4 -d 5 -p tcp -e 40 -c 0 -i 3 -a 0 -x {3.0 8.1 0 ------- null}
h -t 0.01032 -s 4 -d 5 -p tcp -e 40 -c 0 -i 3 -a 0 -x {3.0 8.1 -1 ------- null}
r -t 0.01032 -s 4 -d 5 -p tcp -e 40 -c 0 -i 4 -a 0 -x {4.0 9.1 0 ------- null}
+ -t 0.01032 -s 5 -d 6 -p tcp -e 40 -c 0 -i 4 -a 0 -x {4.0 9.1 0 ------- null}
- -t 0.01032 -s 5 -d 6 -p tcp -e 40 -c 0 -i 4 -a 0 -x {4.0 9.1 0 ------- null}
h -t 0.01032 -s 5 -d 6 -p tcp -e 40 -c 0 -i 4 -a 0 -x {4.0 9.1 -1 ------- null}
r -t 0.01032 -s 5 -d 6 -p tcp -e 40 -c 0 -i 5 -a 0 -x {5.0 10.1 0 ------- null}
+ -t 0.01032 -s 6 -d 7 -p tcp -e 40 -c 0 -i 5 -a 0 -x {5.0 10.1 0 ------- null}
- -t 0.01032 -s 6 -d 7 -p tcp -e 40 -c 0 -i 5 -a 0 -x {5.0 10.1 0 ------- null}
h -t 0.01032 -s 6 -d 7 -p tcp -e 40 -c 0 -i 5 -a 0 -x {5.0 10.1 -1 ------- null}
r -t 0.01032 -s 6 -d 7 -p tcp -e 40 -c 0 -i 6 -a 0 -x {6.0 11.1 0 ------- null}
+ -t 0.01032 -s 7 -d 8 -p tcp -e 40 -c 0 -i 6 -a 0 -x {6.0 11.1 0 ------- null}
- -t 0.01032 -s 7 -d 8 -p tcp -e 40 -c 0 -i 6 -a 0 -x {6.0 11.1 0 ------- null}
h -t 0.01032 -s 7 -d 8 -p tcp -e 40 -c 0 -i 6 -a 0 -x {6.0 11.1 -1 ------- null}
r -t 0.01032 -s 7 -d 8 -p tcp -e 40 -c 0 -i 7 -a 0 -x {7.0 12.1 0 ------- null}
+ -t 0.01032 -s 8 -d 9 -p tcp -e 40 -c 0 -i 7 -a 0 -x {7.0 12.1 0 ------- null}
- -t 0.01032 -s 8 -d 9 -p tcp -e 40 -c 0 -i 7 -a 0 -x {7.0 12.1 0 ------- null}
h -t 0.01032 -s 8 -d 9 -p tcp -e 40 -c 0 -i 7 -a 0 -x {7.0 12.1 -1 ------- null}
r -t 0.01032 -s 8 -d 9 -p tcp -e 40 -c 0 -i 8 -a 0 -x {8.0 13.1 0 ------- null}
+ -t 0.01032 -s 9 -d 10 -p tcp -e 40 -c 0 -i 8 -a 0 -x {8.0 13.1 0 ------- null}
- -t 0.01032 -s 9 -d 10 -p tcp -e 40 -c 0 -i 8 -a 0 -x {8.0 13.1 0 ------- null}
h -t 0.01032 -s 9 -d 10 -p tcp -e 40 -c 0 -i 8 -a 0 -x {8.0 13.1 -1 ------- null}
r -t 0.01032 -s 9 -d 10 -p tcp -e 40 -c 0 -i 9 -a 0 -x {9.0 14.1 0 ------- null}
+ -t 0.01032 -s 10 -d 11 -p tcp -e 40 -c 0 -i 9 -a 0 -x {9.0 14.1 0 ------- null}
- -t 0.01032 -s 10 -d 11 -p tcp -e 40 -c 0 -i 9 -a 0 -x {9.0 14.1 0 ------- null}
h -t 0.01032 -s 10 -d 11 -p tcp -e 40 -c 0 -i 9 -a 0 -x {9.0 14.1 -1 ------- null}
r -t 0.01032 -s 10 -d 11 -p tcp -e 40 -c 0 -i 10 -a 0 -x {10.0 15.1 0 ------- null}
+ -t 0.01032 -s 11 -d 12 -p tcp -e 40 -c 0 -i 10 -a 0 -x {10.0 15.1 0 ------- null}
- -t 0.01032 -s 11 -d 12 -p tcp -e 40 -c 0 -i 10 -a 0 -x {10.0 15.1 0 ------- null}
h -t 0.01032 -s 11 -d 12 -p tcp -e 40 -c 0 -i 10 -a 0 -x {10.0 15.1 -1 ------- null}
r -t 0.01032 -s 11 -d 12 -p tcp -e 40 -c 0 -i 11 -a 0 -x {11.0 16.1 0 ------- null}
+ -t 0.01032 -s 12 -d 13 -p tcp -e 40 -c 0 -i 11 -a 0 -x {11.0 16.1 0 ------- null}
- -t 0.01032 -s 12 -d 13 -p tcp -e 40 -c 0 -i 11 -a 0 -x {11.0 16.1 0 ------- null}
h -t 0.01032 -s 12 -d 13 -p tcp -e 40 -c 0 -i 11 -a 0 -x {11.0 16.1 -1 ------- null}
r -t 0.01032 -s 12 -d 13 -p tcp -e 40 -c 0 -i 12 -a 0 -x {12.0 17.1 0 ------- null}
+ -t 0.01032 -s 13 -d 14 -p tcp -e 40 -c 0 -i 12 -a 0 -x {12.0 17.1 0 ------- null}
- -t 0.01032 -s 13 -d 14 -p tcp -e 40 -c 0 -i 12 -a 0 -x {12.0 17.1 0 ------- null}
h -t 0.01032 -s 13 -d 14 -p tcp -e 40 -c 0 -i 12 -a 0 -x {12.0 17.1 -1 ------- null}
r -t 0.01032 -s 13 -d 14 -p tcp -e 40 -c 0 -i 13 -a 0 -x {13.0 18.1 0 ------- null}
+ -t 0.01032 -s 14 -d 15 -p tcp -e 40 -c 0 -i 13 -a 0 -x {13.0 18.1 0 ------- null}
- -t 0.01032 -s 14 -d 15 -p tcp -e 40 -c 0 -i 13 -a 0 -x {13.0 18.1 0 ------- null}
h -t 0.01032 -s 14 -d 15 -p tcp -e 40 -c 0 -i 13 -a 0 -x {13.0 18.1 -1 ------- null}
r -t 0.01032 -s 14 -d 15 -p tcp -e 40 -c 0 -i 14 -a 0 -x {14.0 19.1 0 ------- null}
+ -t 0.01032 -s 15 -d 16 -p tcp -e 40 -c 0 -i 14 -a 0 -x {14.0 19.1 0 ------- null}
- -t 0.01032 -s 15 -d 16 -p tcp -e 40 -c 0 -i 14 -a 0 -x {14.0 19.1 0 ------- null}
h -t 0.01032 -s 15 -d 16 -p tcp -e 40 -c 0 -i 14 -a 0 -x {14.0 19.1 -1 ------- null}
r -t 0.01032 -s 15 -d 16 -p tcp -e 40 -c 0 -i 15 -a 0 -x {15.0 20.1 0 ------- null}
+ -t 0.01032 -s 16 -d 17 -p tcp -e 40 -c 0 -i 15 -a 0 -x {15.0 20.1 0 ------- null}
- -t 0.01032 -s 16 -d 17 -p tcp -e 40 -c 0 -i 15 -a 0 -x {15.0 20.1 0 ------- null}
h -t 0.01032 -s 16 -d 17 -p tcp -e 40 -c 0 -i 15 -a 0 -x {15.0 20.1 -1 ------- null}
r -t 0.02064 -s 1 -d 2 -p tcp -e 40 -c 0 -i 0 -a 0 -x {0.0 5.1 0 ------- null}
+ -t 0.02064 -s 2 -d 3 -p tcp -e 40 -c 0 -i 0 -a 0 -x {0.0 5.1 0 ------- null}
- -t 0.02064 -s 2 -d 3 -p tcp -e 40 -c 0 -i 0 -a 0 -x {0.0 5.1 0 ------- null}
h -t 0.02064 -s 2 -d 3 -p tcp -e 40 -c 0 -i 0 -a 0 -x {0.0 5.1 -1 ------- null}
r -t 0.02064 -s 2 -d 3 -p tcp -e 40 -c 0 -i 1 -a 0 -x {1.0 6.1 0 ------- null}
+ -t 0.02064 -s 3 -d 4 -p tcp -e 40 -c 0 -i 1 -a 0 -x {1.0 6.1 0 ------- null}
- -t 0.02064 -s 3 -d 4 -p tcp -e 40 -c 0 -i 1 -a 0 -x {1.0 6.1 0 ------- null}
h -t 0.02064 -s 3 -d 4 -p tcp -e 40 -c 0 -i 1 -a 0 -x {1.0 6.1 -1 ------- null}
r -t 0.02064 -s 3 -d 4 -p tcp -e 40 -c 0 -i 2 -a 0 -x {2.0 7.1 0 ------- null}
+ -t 0.02064 -s 4 -d 5 -p tcp -e 40 -c 0 -i 2 -a 0 -x {2.0 7.1 0 ------- null}
- -t 0.02064 -s 4 -d 5 -p tcp -e 40 -c 0 -i 2 -a 0 -x {2.0 7.1 0 ------- null}
h -t 0.02064 -s 4 -d 5 -p tcp -e 40 -c 0 -i 2 -a 0 -x {2.0 7.1 -1 ------- null}
r -t 0.02064 -s 4 -d 5 -p tcp -e 40 -c 0 -i 3 -a 0 -x {3.0 8.1 0 ------- null}
+ -t 0.02064 -s 5 -d 6 -p tcp -e 40 -c 0 -i 3 -a 0 -x {3.0 8.1 0 ------- null}
- -t 0.02064 -s 5 -d 6 -p tcp -e 40 -c 0 -i 3 -a 0 -x {3.0 8.1 0 ------- null}
h -t 0.02064 -s 5 -d 6 -p tcp -e 40 -c 0 -i 3 -a 0 -x {3.0 8.1 -1 ------- null}
r -t 0.02064 -s 5 -d 6 -p tcp -e 40 -c 0 -i 4 -a 0 -x {4.0 9.1 0 ------- null}
+ -t 0.02064 -s 6 -d 7 -p tcp -e 40 -c 0 -i 4 -a 0 -x {4.0 9.1 0 ------- null}
- -t 0.02064 -s 6 -d 7 -p tcp -e 40 -c 0 -i 4 -a 0 -x {4.0 9.1 0 ------- null}
h -t 0.02064 -s 6 -d 7 -p tcp -e 40 -c 0 -i 4 -a 0 -x {4.0 9.1 -1 ------- null}
r -t 0.02064 -s 6 -d 7 -p tcp -e 40 -c 0 -i 5 -a 0 -x {5.0 10.1 0 ------- null}
+ -t 0.02064 -s 7 -d 8 -p tcp -e 40 -c 0 -i 5 -a 0 -x {5.0 10.1 0 ------- null}
- -t 0.02064 -s 7 -d 8 -p tcp -e 40 -c 0 -i 5 -a 0 -x {5.0 10.1 0 ------- null}
h -t 0.02064 -s 7 -d 8 -p tcp -e 40 -c 0 -i 5 -a 0 -x {5.0 10.1 -1 ------- null}
r -t 0.02064 -s 7 -d 8 -p tcp -e 40 -c 0 -i 6 -a 0 -x {6.0 11.1 0 ------- null}
+ -t 0.02064 -s 8 -d 9 -p tcp -e 40 -c 0 -i 6 -a 0 -x {6.0 11.1 0 ------- null}
- -t 0.02064 -s 8 -d 9 -p tcp -e 40 -c 0 -i 6 -a 0 -x {6.0 11.1 0 ------- null}
h -t 0.02064 -s 8 -d 9 -p tcp -e 40 -c 0 -i 6 -a 0 -x {6.0 11.1 -1 ------- null}
r -t 0.02064 -s 8 -d 9 -p tcp -e 40 -c 0 -i 7 -a 0 -x {7.0 12.1 0 ------- null}
+ -t 0.02064 -s 9 -d 10 -p tcp -e 40 -c 0 -i 7 -a 0 -x {7.0 12.1 0 ------- null}
- -t 0.02064 -s 9 -d 10 -p tcp -e 40 -c 0 -i 7 -a 0 -x {7.0 12.1 0 ------- null}
h -t 0.02064 -s 9 -d 10 -p tcp -e 40 -c 0 -i 7 -a 0 -x {7.0 12.1 -1 ------- null}
r -t 0.02064 -s 9 -d 10 -p tcp -e 40 -c 0 -i 8 -a 0 -x {8.0 13.1 0 ------- null}
+ -t 0.02064 -s 10 -d 11 -p tcp -e 40 -c 0 -i 8 -a 0 -x {8.0 13.1 0 ------- null}
- -t 0.02064 -s 10 -d 11 -p tcp -e 40 -c 0 -i 8 -a 0 -x {8.0 13.1 0 ------- null}
h -t 0.02064 -s 10 -d 11 -p tcp -e 40 -c 0 -i 8 -a 0 -x {8.0 13.1 -1 ------- null}
r -t 0.02064 -s 10 -d 11 -p tcp -e 40 -c 0 -i 9 -a 0 -x {9.0 14.1 0 ------- null}
+ -t 0.02064 -s 11 -d 12 -p tcp -e 40 -c 0 -i 9 -a 0 -x {9.0 14.1 0 ------- null}
- -t 0.02064 -s 11 -d 12 -p tcp -e 40 -c 0 -i 9 -a 0 -x {9.0 14.1 0 ------- null}
h -t 0.02064 -s 11 -d 12 -p tcp -e 40 -c 0 -i 9 -a 0 -x {9.0 14.1 -1 ------- null}
r -t 0.02064 -s 11 -d 12 -p tcp -e 40 -c 0 -i 10 -a 0 -x {10.0 15.1 0 ------- null}
+ -t 0.02064 -s 12 -d 13 -p tcp -e 40 -c 0 -i 10 -a 0 -x {10.0 15.1 0 ------- null}
- -t 0.02064 -s 12 -d 13 -p tcp -e 40 -c 0 -i 10 -a 0 -x {10.0 15.1 0 ------- null}
h -t 0.02064 -s 12 -d 13 -p tcp -e 40 -c 0 -i 10 -a 0 -x {10.0 15.1 -1 ------- null}
r -t 0.02064 -s 12 -d 13 -p tcp -e 40 -c 0 -i 11 -a 0 -x {11.0 16.1 0 ------- null}
+ -t 0.02064 -s 13 -d 14 -p tcp -e 40 -c 0 -i 11 -a 0 -x {11.0 16.1 0 ------- null}
- -t 0.02064 -s 13 -d 14 -p tcp -e 40 -c 0 -i 11 -a 0 -x {11.0 16.1 0 ------- null}
h -t 0.02064 -s 13 -d 14 -p tcp -e 40 -c 0 -i 11 -a 0 -x {11.0 16.1 -1 ------- null}
r -t 0.02064 -s 13 -d 14 -p tcp -e 40 -c 0 -i 12 -a 0 -x {12.0 17.1 0 ------- null}
+ -t 0.02064 -s 14 -d 15 -p tcp -e 40 -c 0 -i 12 -a 0 -x {12.0 17.1 0 ------- null}
- -t 0.02064 -s 14 -d 15 -p tcp -e 40 -c 0 -i 12 -a 0 -x {12.0 17.1 0 ------- null}
h -t 0.02064 -s 14 -d 15 -p tcp -e 40 -c 0 -i 12 -a 0 -x {12.0 17.1 -1 ------- null}
r -t 0.02064 -s 14 -d 15 -p tcp -e 40 -c 0 -i 13 -a 0 -x {13.0 18.1 0 ------- null}
+ -t 0.02064 -s 15 -d 16 -p tcp -e 40 -c 0 -i 13 -a 0 -x {13.0 18.1 0 ------- null}
- -t 0.02064 -s 15 -d 16 -p tcp -e 40 -c 0 -i 13 -a 0 -x {13.0 18.1 0 ------- null}
h -t 0.02064 -s 15 -d 16 -p tcp -e 40 -c 0 -i 13 -a 0 -x {13.0 18.1 -1 ------- null}
r -t 0.02064 -s 15 -d 16 -p tcp -e 40 -c 0 -i 14 -a 0 -x {14.0 19.1 0 ------- null}
+ -t 0.02064 -s 16 -d 17 -p tcp -e 40 -c 0 -i 14 -a 0 -x {14.0 19.1 0 ------- null}
- -t 0.02064 -s 16 -d 17 -p tcp -e 40 -c 0 -i 14 -a 0 -x {14.0 19.1 0 ------- null}
h -t 0.02064 -s 16 -d 17 -p tcp -e 40 -c 0 -i 14 -a 0 -x {14.0 19.1 -1 ------- null}
r -t 0.02064 -s 16 -d 17 -p tcp -e 40 -c 0 -i 15 -a 0 -x {15.0 20.1 0 ------- null}
+ -t 0.02064 -s 17 -d 18 -p tcp -e 40 -c 0 -i 15 -a 0 -x {15.0 20.1 0 ------- null}
- -t 0.02064 -s 17 -d 18 -p tcp -e 40 -c 0 -i 15 -a 0 -x {15.0 20.1 0 ------- null}
h -t 0.02064 -s 17 -d 18 -p tcp -e 40 -c 0 -i 15 -a 0 -x {15.0 20.1 -1 ------- null}
r -t 0.03096 -s 2 -d 3 -p tcp -e 40 -c 0 -i 0 -a 0 -x {0.0 5.1 0 ------- null}
+ -t 0.03096 -s 3 -d 4 -p tcp -e 40 -c 0 -i 0 -a 0 -x {0.0 5.1 0 ------- null}
- -t 0.03096 -s 3 -d 4 -p tcp -e 40 -c 0 -i 0 -a 0 -x {0.0 5.1 0 ------- null}
h -t 0.03096 -s 3 -d 4 -p tcp -e 40 -c 0 -i 0 -a 0 -x {0.0 5.1 -1 ------- null}
r -t 0.03096 -s 3 -d 4 -p tcp -e 40 -c 0 -i 1 -a 0 -x {1.0 6.1 0 ------- null}
+ -t 0.03096 -s 4 -d 5 -p tcp -e 40 -c 0 -i 1 -a 0 -x {1.0 6.1 0 ------- null}
- -t 0.03096 -s 4 -d 5 -p tcp -e 40 -c 0 -i 1 -a 0 -x {1.0 6.1 0 ------- null}
h -t 0.03096 -s 4 -d 5 -p tcp -e 40 -c 0 -i 1 -a 0 -x {1.0 6.1 -1 ------- null}
r -t 0.03096 -s 4 -d 5 -p tcp -e 40 -c 0 -i 2 -a 0 -x {2.0 7.1 0 ------- null}
+ -t 0.03096 -s 5 -d 6 -p tcp -e 40 -c 0 -i 2 -a 0 -x {2.0 7.1 0 ------- null}
- -t 0.03096 -s 5 -d 6 -p tcp -e 40 -c 0 -i 2 -a 0 -x {2.0 7.1 0 ------- null}
h -t 0.03096 -s 5 -d 6 -p tcp -e 40 -c 0 -i 2 -a 0 -x {2.0 7.1 -1 ------- null}
r -t 0.03096 -s 5 -d 6 -p tcp -e 40 -c 0 -i 3 -a 0 -x {3.0 8.1 0 ------- null}
+ -t 0.03096 -s 6 -d 7 -p tcp -e 40 -c 0 -i 3 -a 0 -x {3.0 8.1 0 ------- null}
- -t 0.03096 -s 6 -d 7 -p tcp -e 40 -c 0 -i 3 -a 0 -x {3.0 8.1 0 ------- null}
h -t 0.03096 -s 6 -d 7 -p tcp -e 40 -c 0 -i 3 -a 0 -x {3.0 8.1 -1 ------- null}
r -t 0.03096 -s 6 -d 7 -p tcp -e 40 -c 0 -i 4 -a 0 -x {4.0 9.1 0 ------- null}
+ -t 0.03096 -s 7 -d 8 -p tcp -e 40 -c 0 -i 4 -a 0 -x {4.0 9.1 0 ------- null}
- -t 0.03096 -s 7 -d 8 -p tcp -e 40 -c 0 -i 4 -a 0 -x {4.0 9.1 0 ------- null}
h -t 0.03096 -s 7 -d 8 -p tcp -e 40 -c 0 -i 4 -a 0 -x {4.0 9.1 -1 ------- null}
r -t 0.03096 -s 7 -d 8 -p tcp -e 40 -c 0 -i 5 -a 0 -x {5.0 10.1 0 ------- null}
+ -t 0.03096 -s 8 -d 9 -p tcp -e 40 -c 0 -i 5 -a 0 -x {5.0 10.1 0 ------- null}
- -t 0.03096 -s 8 -d 9 -p tcp -e 40 -c 0 -i 5 -a 0 -x {5.0 10.1 0 ------- null}
h -t 0.03096 -s 8 -d 9 -p tcp -e 40 -c 0 -i 5 -a 0 -x {5.0 10.1 -1 ------- null}
r -t 0.03096 -s 8 -d 9 -p tcp -e 40 -c 0 -i 6 -a 0 -x {6.0 11.1 0 ------- null}
+ -t 0.03096 -s 9 -d 10 -p tcp -e 40 -c 0 -i 6 -a 0 -x {6.0 11.1 0 ------- null}
- -t 0.03096 -s 9 -d 10 -p tcp -e 40 -c 0 -i 6 -a 0 -x {6.0 11.1 0 ------- null}
h -t 0.03096 -s 9 -d 10 -p tcp -e 40 -c 0 -i 6 -a 0 -x {6.0 11.1 -1 ------- null}
r -t 0.03096 -s 9 -d 10 -p tcp -e 40 -c 0 -i 7 -a 0 -x {7.0 12.1 0 ------- null}
+ -t 0.03096 -s 10 -d 11 -p tcp -e 40 -c 0 -i 7 -a 0 -x {7.0 12.1 0 ------- null}
- -t 0.03096 -s 10 -d 11 -p tcp -e 40 -c 0 -i 7 -a 0 -x {7.0 12.1 0 ------- null}
h -t 0.03096 -s 10 -d 11 -p tcp -e 40 -c 0 -i 7 -a 0 -x {7.0 12.1 -1 ------- null}
r -t 0.03096 -s 10 -d 11 -p tcp -e 40 -c 0 -i 8 -a 0 -x {8.0 13.1 0 ------- null}
+ -t 0.03096 -s 11 -d 12 -p tcp -e 40 -c 0 -i 8 -a 0 -x {8.0 13.1 0 ------- null}
- -t 0.03096 -s 11 -d 12 -p tcp -e 40 -c 0 -i 8 -a 0 -x {8.0 13.1 0 ------- null}
h -t 0.03096 -s 11 -d 12 -p tcp -e 40 -c 0 -i 8 -a 0 -x {8.0 13.1 -1 ------- null}
r -t 0.03096 -s 11 -d 12 -p tcp -e 40 -c 0 -i 9 -a 0 -x {9.0 14.1 0 ------- null}
+ -t 0.03096 -s 12 -d 13 -p tcp -e 40 -c 0 -i 9 -a 0 -x {9.0 14.1 0 ------- null}
- -t 0.03096 -s 12 -d 13 -p tcp -e 40 -c 0 -i 9 -a 0 -x {9.0 14.1 0 ------- null}
h -t 0.03096 -s 12 -d 13 -p tcp -e 40 -c 0 -i 9 -a 0 -x {9.0 14.1 -1 ------- null}
r -t 0.03096 -s 12 -d 13 -p tcp -e 40 -c 0 -i 10 -a 0 -x {10.0 15.1 0 ------- null}
+ -t 0.03096 -s 13 -d 14 -p tcp -e 40 -c 0 -i 10 -a 0 -x {10.0 15.1 0 ------- null}
- -t 0.03096 -s 13 -d 14 -p tcp -e 40 -c 0 -i 10 -a 0 -x {10.0 15.1 0 ------- null}
h -t 0.03096 -s 13 -d 14 -p tcp -e 40 -c 0 -i 10 -a 0 -x {10.0 15.1 -1 ------- null}
r -t 0.03096 -s 13 -d 14 -p tcp -e 40 -c 0 -i 11 -a 0 -x {11.0 16.1 0 ------- null}
+ -t 0.03096 -s 14 -d 15 -p tcp -e 40 -c 0 -i 11 -a 0 -x {11.0 16.1 0 ------- null}
- -t 0.03096 -s 14 -d 15 -p tcp -e 40 -c 0 -i 11 -a 0 -x {11.0 16.1 0 ------- null}
h -t 0.03096 -s 14 -d 15 -p tcp -e 40 -c 0 -i 11 -a 0 -x {11.0 16.1 -1 ------- null}
r -t 0.03096 -s 14 -d 15 -p tcp -e 40 -c 0 -i 12 -a 0 -x {12.0 17.1 0 ------- null}
+ -t 0.03096 -s 15 -d 16 -p tcp -e 40 -c 0 -i 12 -a 0 -x {12.0 17.1 0 ------- null}
- -t 0.03096 -s 15 -d 16 -p tcp -e 40 -c 0 -i 12 -a 0 -x {12.0 17.1 0 ------- null}
h -t 0.03096 -s 15 -d 16 -p tcp -e 40 -c 0 -i 12 -a 0 -x {12.0 17.1 -1 ------- null}
r -t 0.03096 -s 15 -d 16 -p tcp -e 40 -c 0 -i 13 -a 0 -x {13.0 18.1 0 ------- null}
+ -t 0.03096 -s 16 -d 17 -p tcp -e 40 -c 0 -i 13 -a 0 -x {13.0 18.1 0 ------- null}
- -t 0.03096 -s 16 -d 17 -p tcp -e 40 -c 0 -i 13 -a 0 -x {13.0 18.1 0 ------- null}
h -t 0.03096 -s 16 -d 17 -p tcp -e 40 -c 0 -i 13 -a 0 -x {13.0 18.1 -1 ------- null}
r -t 0.03096 -s 16 -d 17 -p tcp -e 40 -c 0 -i 14 -a 0 -x {14.0 19.1 0 ------- null}
+ -t 0.03096 -s 17 -d 18 -p tcp -e 40 -c 0 -i 14 -a 0 -x {14.0 19.1 0 ------- null}
- -t 0.03096 -s 17 -d 18 -p tcp -e 40 -c 0 -i 14 -a 0 -x {14.0 19.1 0 ------- null}
h -t 0.03096 -s 17 -d 18 -p tcp -e 40 -c 0 -i 14 -a 0 -x {14.0 19.1 -1 ------- null}
r -t 0.03096 -s 17 -d 18 -p tcp -e 40 -c 0 -i 15 -a 0 -x {15.0 20.1 0 ------- null}
+ -t 0.03096 -s 18 -d 19 -p tcp -e 40 -c 0 -i 15 -a 0 -x {15.0 20.1 0 ------- null}
- -t 0.03096 -s 18 -d 19 -p tcp -e 40 -c 0 -i 15 -a 0 -x {15.0 20.1 0 ------- null}
h -t 0.03096 -s 18 -d 19 -p tcp -e 40 -c 0 -i 15 -a 0 -x {15.0 20.1 -1 ------- null}
r -t 0.04128 -s 3 -d 4 -p tcp -e 40 -c 0 -i 0 -a 0 -x {0.0 5.1 0 ------- null}
+ -t 0.04128 -s 4 -d 5 -p tcp -e 40 -c 0 -i 0 -a 0 -x {0.0 5.1 0 ------- null}
- -t 0.04128 -s 4 -d 5 -p tcp -e 40 -c 0 -i 0 -a 0 -x {0.0 5.1 0 ------- null}
h -t 0.04128 -s 4 -d 5 -p tcp -e 40 -c 0 -i 0 -a 0 -x {0.0 5.1 -1 ------- null}
r -t 0.04128 -s 4 -d 5 -p tcp -e 40 -c 0 -i 1 -a 0 -x {1.0 6.1 0 ------- null}
+ -t 0.04128 -s 5 -d 6 -p tcp -e 40 -c 0 -i 1 -a 0 -x {1.0 6.1 0 ------- null}
- -t 0.04128 -s 5 -d 6 -p tcp -e 40 -c 0 -i 1 -a 0 -x {1.0 6.1 0 ------- null}
h -t 0.04128 -s 5 -d 6 -p tcp -e 40 -c 0 -i 1 -a 0 -x {1.0 6.1 -1 ------- null}
r -t 0.04128 -s 5 -d 6 -p tcp -e 40 -c 0 -i 2 -a 0 -x {2.0 7.1 0 ------- null}
+ -t 0.04128 -s 6 -d 7 -p tcp -e 40 -c 0 -i 2 -a 0 -x {2.0 7.1 0 ------- null}
- -t 0.04128 -s 6 -d 7 -p tcp -e 40 -c 0 -i 2 -a 0 -x {2.0 7.1 0 ------- null}
h -t 0.04128 -s 6 -d 7 -p tcp -e 40 -c 0 -i 2 -a 0 -x {2.0 7.1 -1 ------- null}
r -t 0.04128 -s 6 -d 7 -p tcp -e 40 -c 0 -i 3 -a 0 -x {3.0 8.1 0 ------- null}
+ -t 0.04128 -s 7 -d 8 -p tcp -e 40 -c 0 -i 3 -a 0 -x {3.0 8.1 0 ------- null}
- -t 0.04128 -s 7 -d 8 -p tcp -e 40 -c 0 -i 3 -a 0 -x {3.0 8.1 0 ------- null}
h -t 0.04128 -s 7 -d 8 -p tcp -e 40 -c 0 -i 3 -a 0 -x {3.0 8.1 -1 ------- null}
r -t 0.04128 -s 7 -d 8 -p tcp -e 40 -c 0 -i 4 -a 0 -x {4.0 9.1 0 ------- null}
+ -t 0.04128 -s 8 -d 9 -p tcp -e 40 -c 0 -i 4 -a 0 -x {4.0 9.1 0 ------- null}
- -t 0.04128 -s 8 -d 9 -p tcp -e 40 -c 0 -i 4 -a 0 -x {4.0 9.1 0 ------- null}
h -t 0.04128 -s 8 -d 9 -p tcp -e 40 -c 0 -i 4 -a 0 -x {4.0 9.1 -1 ------- null}
r -t 0.04128 -s 8 -d 9 -p tcp -e 40 -c 0 -i 5 -a 0 -x {5.0 10.1 0 ------- null}
+ -t 0.04128 -s 9 -d 10 -p tcp -e 40 -c 0 -i 5 -a 0 -x {5.0 10.1 0 ------- null}
- -t 0.04128 -s 9 -d 10 -p tcp -e 40 -c 0 -i 5 -a 0 -x {5.0 10.1 0 ------- null}
h -t 0.04128 -s 9 -d 10 -p tcp -e 40 -c 0 -i 5 -a 0 -x {5.0 10.1 -1 ------- null}
r -t 0.04128 -s 9 -d 10 -p tcp -e 40 -c 0 -i 6 -a 0 -x {6.0 11.1 0 ------- null}
+ -t 0.04128 -s 10 -d 11 -p tcp -e 40 -c 0 -i 6 -a 0 -x {6.0 11.1 0 ------- null}
- -t 0.04128 -s 10 -d 11 -p tcp -e 40 -c 0 -i 6 -a 0 -x {6.0 11.1 0 ------- null}
h -t 0.04128 -s 10 -d 11 -p tcp -e 40 -c 0 -i 6 -a 0 -x {6.0 11.1 -1 ------- null}
r -t 0.04128 -s 10 -d 11 -p tcp -e 40 -c 0 -i 7 -a 0 -x {7.0 12.1 0 ------- null}
+ -t 0.04128 -s 11 -d 12 -p tcp -e 40 -c 0 -i 7 -a 0 -x {7.0 12.1 0 ------- null}
- -t 0.04128 -s 11 -d 12 -p tcp -e 40 -c 0 -i 7 -a 0 -x {7.0 12.1 0 ------- null}
h -t 0.04128 -s 11 -d 12 -p tcp -e 40 -c 0 -i 7 -a 0 -x {7.0 12.1 -1 ------- null}
r -t 0.04128 -s 11 -d 12 -p tcp -e 40 -c 0 -i 8 -a 0 -x {8.0 13.1 0 ------- null}
+ -t 0.04128 -s 12 -d 13 -p tcp -e 40 -c 0 -i 8 -a 0 -x {8.0 13.1 0 ------- null}
- -t 0.04128 -s 12 -d 13 -p tcp -e 40 -c 0 -i 8 -a 0 -x {8.0 13.1 0 ------- null}
h -t 0.04128 -s 12 -d 13 -p tcp -e 40 -c 0 -i 8 -a 0 -x {8.0 13.1 -1 ------- null}
r -t 0.04128 -s 12 -d 13 -p tcp -e 40 -c 0 -i 9 -a 0 -x {9.0 14.1 0 ------- null}
+ -t 0.04128 -s 13 -d 14 -p tcp -e 40 -c 0 -i 9 -a 0 -x {9.0 14.1 0 ------- null}
- -t 0.04128 -s 13 -d 14 -p tcp -e 40 -c 0 -i 9 -a 0 -x {9.0 14.1 0 ------- null}
h -t 0.04128 -s 13 -d 14 -p tcp -e 40 -c 0 -i 9 -a 0 -x {9.0 14.1 -1 ------- null}
r -t 0.04128 -s 13 -d 14 -p tcp -e 40 -c 0 -i 10 -a 0 -x {10.0 15.1 0 ------- null}
+ -t 0.04128 -s 14 -d 15 -p tcp -e 40 -c 0 -i 10 -a 0 -x {10.0 15.1 0 ------- null}
- -t 0.04128 -s 14 -d 15 -p tcp -e 40 -c 0 -i 10 -a 0 -x {10.0 15.1 0 ------- null}
h -t 0.04128 -s 14 -d 15 -p tcp -e 40 -c 0 -i 10 -a 0 -x {10.0 15.1 -1 ------- null}
r -t 0.04128 -s 14 -d 15 -p tcp -e 40 -c 0 -i 11 -a 0 -x {11.0 16.1 0 ------- null}
+ -t 0.04128 -s 15 -d 16 -p tcp -e 40 -c 0 -i 11 -a 0 -x {11.0 16.1 0 ------- null}
- -t 0.04128 -s 15 -d 16 -p tcp -e 40 -c 0 -i 11 -a 0 -x {11.0 16.1 0 ------- null}
h -t 0.04128 -s 15 -d 16 -p tcp -e 40 -c 0 -i 11 -a 0 -x {11.0 16.1 -1 ------- null}
r -t 0.04128 -s 15 -d 16 -p tcp -e 40 -c 0 -i 12 -a 0 -x {12.0 17.1 0 ------- null}
+ -t 0.04128 -s 16 -d 17 -p tcp -e 40 -c 0 -i 12 -a 0 -x {12.0 17.1 0 ------- null}
- -t 0.04128 -s 16 -d 17 -p tcp -e 40 -c 0 -i 12 -a 0 -x {12.0 17.1 0 ------- null}
h -t 0.04128 -s 16 -d 17 -p tcp -e 40 -c 0 -i 12 -a 0 -x {12.0 17.1 -1 ------- null}
r -t 0.04128 -s 16 -d 17 -p tcp -e 40 -c 0 -i 13 -a 0 -x {13.0 18.1 0 ------- null}
+ -t 0.04128 -s 17 -d 18 -p tcp -e 40 -c 0 -i 13 -a 0 -x {13.0 18.1 0 ------- null}
- -t 0.04128 -s 17 -d 18 -p tcp -e 40 -c 0 -i 13 -a 0 -x {13.0 18.1 0 ------- null}
h -t 0.04128 -s 17 -d 18 -p tcp -e 40 -c 0 -i 13 -a 0 -x {13.0 18.1 -1 ------- null}
r -t 0.04128 -s 17 -d 18 -p tcp -e 40 -c 0 -i 14 -a 0 -x {14.0 19.1 0 ------- null}
+ -t 0.04128 -s 18 -d 19 -p tcp -e 40 -c 0 -i 14 -a 0 -x {14.0 19.1 0 ------- null}
- -t 0.04128 -s 18 -d 19 -p tcp -e 40 -c 0 -i 14 -a 0 -x {14.0 19.1 0 ------- null}
h -t 0.04128 -s 18 -d 19 -p tcp -e 40 -c 0 -i 14 -a 0 -x {14.0 19.1 -1 ------- null}
r -t 0.04128 -s 18 -d 19 -p tcp -e 40 -c 0 -i 15 -a 0 -x {15.0 20.1 0 ------- null}
+ -t 0.04128 -s 19 -d 20 -p tcp -e 40 -c 0 -i 15 -a 0 -x {15.0 20.1 0 ------- null}
- -t 0.04128 -s 19 -d 20 -p tcp -e 40 -c 0 -i 15 -a 0 -x {15.0 20.1 0 ------- null}
h -t 0.04128 -s 19 -d 20 -p tcp -e 40 -c 0 -i 15 -a 0 -x {15.0 20.1 -1 ------- null}
r -t 0.0516 -s 4 -d 5 -p tcp -e 40 -c 0 -i 0 -a 0 -x {0.0 5.1 0 ------- null}
+ -t 0.0516 -s 5 -d 4 -p ack -e 40 -c 0 -i 16 -a 0 -x {5.1 0.0 0 ------- null}
- -t 0.0516 -s 5 -d 4 -p ack -e 40 -c 0 -i 16 -a 0 -x {5.1 0.0 0 ------- null}
h -t 0.0516 -s 5 -d 4 -p ack -e 40 -c 0 -i 16 -a 0 -x {5.1 0.0 -1 ------- null}
r -t 0.0516 -s 5 -d 6 -p tcp -e 40 -c 0 -i 1 -a 0 -x {1.0 6.1 0 ------- null}
+ -t 0.0516 -s 6 -d 5 -p ack -e 40 -c 0 -i 17 -a 0 -x {6.1 1.0 0 ------- null}
- -t 0.0516 -s 6 -d 5 -p ack -e 40 -c 0 -i 17 -a 0 -x {6.1 1.0 0 ------- null}
h -t 0.0516 -s 6 -d 5 -p ack -e 40 -c 0 -i 17 -a 0 -x {6.1 1.0 -1 ------- null}
r -t 0.0516 -s 6 -d 7 -p tcp -e 40 -c 0 -i 2 -a 0 -x {2.0 7.1 0 ------- null}
+ -t 0.0516 -s 7 -d 6 -p ack -e 40 -c 0 -i 18 -a 0 -x {7.1 2.0 0 ------- null}
- -t 0.0516 -s 7 -d 6 -p ack -e 40 -c 0 -i 18 -a 0 -x {7.1 2.0 0 ------- null}
h -t 0.0516 -s 7 -d 6 -p ack -e 40 -c 0 -i 18 -a 0 -x {7.1 2.0 -1 ------- null}
r -t 0.0516 -s 7 -d 8 -p tcp -e 40 -c 0 -i 3 -a 0 -x {3.0 8.1 0 ------- null}
+ -t 0.0516 -s 8 -d 7 -p ack -e 40 -c 0 -i 19 -a 0 -x {8.1 3.0 0 ------- null}
- -t 0.0516 -s 8 -d 7 -p ack -e 40 -c 0 -i 19 -a 0 -x {8.1 3.0 0 ------- null}
h -t 0.0516 -s 8 -d 7 -p ack -e 40 -c 0 -i 19 -a 0 -x {8.1 3.0 -1 ------- null}
r -t 0.0516 -s 8 -d 9 -p tcp -e 40 -c 0 -i 4 -a 0 -x {4.0 9.1 0 ------- null}
+ -t 0.0516 -s 9 -d 8 -p ack -e 40 -c 0 -i 20 -a 0 -x {9.1 4.0 0 ------- null}
- -t 0.0516 -s 9 -d 8 -p ack -e 40 -c 0 -i 20 -a 0 -x {9.1 4.0 0 ------- null}
h -t 0.0516 -s 9 -d 8 -p ack -e 40 -c 0 -i 20 -a 0 -x {9.1 4.0 -1 ------- null}
r -t 0.0516 -s 9 -d 10 -p tcp -e 40 -c 0 -i 5 -a 0 -x {5.0 10.1 0 ------- null}
+ -t 0.0516 -s 10 -d 9 -p ack -e 40 -c 0 -i 21 -a 0 -x {10.1 5.0 0 ------- null}
- -t 0.0516 -s 10 -d 9 -p ack -e 40 -c 0 -i 21 -a 0 -x {10.1 5.0 0 ------- null}
h -t 0.0516 -s 10 -d 9 -p ack -e 40 -c 0 -i 21 -a 0 -x {10.1 5.0 -1 ------- null}
r -t 0.0516 -s 10 -d 11 -p tcp -e 40 -c 0 -i 6 -a 0 -x {6.0 11.1 0 ------- null}
+ -t 0.0516 -s 11 -d 10 -p ack -e 40 -c 0 -i 22 -a 0 -x {11.1 6.0 0 ------- null}
- -t 0.0516 -s 11 -d 10 -p ack -e 40 -c 0 -i 22 -a 0 -x {11.1 6.0 0 ------- null}
h -t 0.0516 -s 11 -d 10 -p ack -e 40 -c 0 -i 22 -a 0 -x {11.1 6.0 -1 ------- null}
r -t 0.0516 -s 11 -d 12 -p tcp -e 40 -c 0 -i 7 -a 0 -x {7.0 12.1 0 ------- null}
+ -t 0.0516 -s 12 -d 11 -p ack -e 40 -c 0 -i 23 -a 0 -x {12.1 7.0 0 ------- null}
- -t 0.0516 -s 12 -d 11 -p ack -e 40 -c 0 -i 23 -a 0 -x {12.1 7.0 0 ------- null}
h -t 0.0516 -s 12 -d 11 -p ack -e 40 -c 0 -i 23 -a 0 -x {12.1 7.0 -1 ------- null}
r -t 0.0516 -s 12 -d 13 -p tcp -e 40 -c 0 -i 8 -a 0 -x {8.0 13.1 0 ------- null}
+ -t 0.0516 -s 13 -d 12 -p ack -e 40 -c 0 -i 24 -a 0 -x {13.1 8.0 0 ------- null}
- -t 0.0516 -s 13 -d 12 -p ack -e 40 -c 0 -i 24 -a 0 -x {13.1 8.0 0 ------- null}
h -t 0.0516 -s 13 -d 12 -p ack -e 40 -c 0 -i 24 -a 0 -x {13.1 8.0 -1 ------- null}
r -t 0.0516 -s 13 -d 14 -p tcp -e 40 -c 0 -i 9 -a 0 -x {9.0 14.1 0 ------- null}
+ -t 0.0516 -s 14 -d 13 -p ack -e 40 -c 0 -i 25 -a 0 -x {14.1 9.0 0 ------- null}
- -t 0.0516 -s 14 -d 13 -p ack -e 40 -c 0 -i 25 -a 0 -x {14.1 9.0 0 ------- null}