+ 0 0 1 tcp 40 ------- 0 0.0 5.1 0 0
- 0 0 1 tcp 40 ------- 0 0.0 5.1 0 0
+ 0 1 2 tcp 40 ------- 0 1.0 6.1 0 1
- 0 1 2 tcp 40 ------- 0 1.0 6.1 0 1
+ 0 2 3 tcp 40 ------- 0 2.0 7.1 0 2
- 0 2 3 tcp 40 ------- 0 2.0 7.1 0 2
+ 0 3 4 tcp 40 ------- 0 3.0 8.1 0 3
- 0 3 4 tcp 40 ------- 0 3.0 8.1 0 3
+ 0 4 5 tcp 40 ------- 0 4.0 9.1 0 4
- 0 4 5 tcp 40 ------- 0 4.0 9.1 0 4
+ 0 5 6 tcp 40 ------- 0 5.0 10.1 0 5
- 0 5 6 tcp 40 ------- 0 5.0 10.1 0 5
+ 0 6 7 tcp 40 ------- 0 6.0 11.1 0 6
- 0 6 7 tcp 40 ------- 0 6.0 11.1 0 6
+ 0 7 8 tcp 40 ------- 0 7.0 12.1 0 7
- 0 7 8 tcp 40 ------- 0 7.0 12.1 0 7
+ 0 8 9 tcp 40 ------- 0 8.0 13.1 0 8
- 0 8 9 tcp 40 ------- 0 8.0 13.1 0 8
+ 0 9 10 tcp 40 ------- 0 9.0 14.1 0 9
- 0 9 10 tcp 40 ------- 0 9.0 14.1 0 9
+ 0 10 11 tcp 40 ------- 0 10.0 15.1 0 10
- 0 10 11 tcp 40 ------- 0 10.0 15.1 0 10
+ 0 11 12 tcp 40 ------- 0 11.0 16.1 0 11
- 0 11 12 tcp 40 ------- 0 11.0 16.1 0 11
+ 0 12 13 tcp 40 ------- 0 12.0 17.1 0 12
- 0 12 13 tcp 40 ------- 0 12.0 17.1 0 12
+ 0 13 14 tcp 40 ------- 0 13.0 18.1 0 13
- 0 13 14 tcp 40 ------- 0 13.0 18.1 0 13
+ 0 14 15 tcp 40 ------- 0 14.0 19.1 0 14
- 0 14 15 tcp 40 ------- 0 14.0 19.1 0 14
+ 0 15 16 tcp 40 ------- 0 15.0 20.1 0 15
- 0 15 16 tcp 40 ------- 0 15.0 20.1 0 15
r 0.01032 0 1 tcp 40 ------- 0 0.0 5.1 0 0
+ 0.01032 1 2 tcp 40 ------- 0 0.0 5.1 0 0
- 0.01032 1 2 tcp 40 ------- 0 0.0 5.1 0 0
r 0.01032 1 2 tcp 40 ------- 0 1.0 6.1 0 1
+ 0.01032 2 3 tcp 40 ------- 0 1.0 6.1 0 1
- 0.01032 2 3 tcp 40 ------- 0 1.0 6.1 0 1
r 0.01032 2 3 tcp 40 ------- 0 2.0 7.1 0 2
+ 0.01032 3 4 tcp 40 ------- 0 2.0 7.1 0 2
- 0.01032 3 4 tcp 40 ------- 0 2.0 7.1 0 2
r 0.01032 3 4 tcp 40 ------- 0 3.0 8.1 0 3
+ 0.01032 4 5 tcp 40 ------- 0 3.0 8.1 0 3
- 0.01032 4 5 tcp 40 ------- 0 3.0 8.1 0 3
r 0.01032 4 5 tcp 40 ------- 0 4.0 9.1 0 4
+ 0.01032 5 6 tcp 40 ------- 0 4.0 9.1 0 4
- 0.01032 5 6 tcp 40 ------- 0 4.0 9.1 0 4
r 0.01032 5 6 tcp 40 ------- 0 5.0 10.1 0 5
+ 0.01032 6 7 tcp 40 ------- 0 5.0 10.1 0 5
- 0.01032 6 7 tcp 40 ------- 0 5.0 10.1 0 5
r 0.01032 6 7 tcp 40 ------- 0 6.0 11.1 0 6
+ 0.01032 7 8 tcp 40 ------- 0 6.0 11.1 0 6
- 0.01032 7 8 tcp 40 ------- 0 6.0 11.1 0 6
r 0.01032 7 8 tcp 40 ------- 0 7.0 12.1 0 7
+ 0.01032 8 9 tcp 40 ------- 0 7.0 12.1 0 7
- 0.01032 8 9 tcp 40 ------- 0 7.0 12.1 0 7
r 0.01032 8 9 tcp 40 ------- 0 8.0 13.1 0 8
+ 0.01032 9 10 tcp 40 ------- 0 8.0 13.1 0 8
- 0.01032 9 10 tcp 40 ------- 0 8.0 13.1 0 8
r 0.01032 9 10 tcp 40 ------- 0 9.0 14.1 0 9
+ 0.01032 10 11 tcp 40 ------- 0 9.0 14.1 0 9
- 0.01032 10 11 tcp 40 ------- 0 9.0 14.1 0 9
r 0.01032 10 11 tcp 40 ------- 0 10.0 15.1 0 10
+ 0.01032 11 12 tcp 40 ------- 0 10.0 15.1 0 10
- 0.01032 11 12 tcp 40 ------- 0 10.0 15.1 0 10
r 0.01032 11 12 tcp 40 ------- 0 11.0 16.1 0 11
+ 0.01032 12 13 tcp 40 ------- 0 11.0 16.1 0 11
- 0.01032 12 13 tcp 40 ------- 0 11.0 16.1 0 11
r 0.01032 12 13 tcp 40 ------- 0 12.0 17.1 0 12
+ 0.01032 13 14 tcp 40 ------- 0 12.0 17.1 0 12
- 0.01032 13 14 tcp 40 ------- 0 12.0 17.1 0 12
r 0.01032 13 14 tcp 40 ------- 0 13.0 18.1 0 13
+ 0.01032 14 15 tcp 40 ------- 0 13.0 18.1 0 13
- 0.01032 14 15 tcp 40 ------- 0 13.0 18.1 0 13
r 0.01032 14 15 tcp 40 ------- 0 14.0 19.1 0 14
+ 0.01032 15 16 tcp 40 ------- 0 14.0 19.1 0 14
- 0.01032 15 16 tcp 40 ------- 0 14.0 19.1 0 14
r 0.01032 15 16 tcp 40 ------- 0 15.0 20.1 0 15
+ 0.01032 16 17 tcp 40 ------- 0 15.0 20.1 0 15
- 0.01032 16 17 tcp 40 ------- 0 15.0 20.1 0 15
r 0.02064 1 2 tcp 40 ------- 0 0.0 5.1 0 0
+ 0.02064 2 3 tcp 40 ------- 0 0.0 5.1 0 0
- 0.02064 2 3 tcp 40 ------- 0 0.0 5.1 0 0
r 0.02064 2 3 tcp 40 ------- 0 1.0 6.1 0 1
+ 0.02064 3 4 tcp 40 ------- 0 1.0 6.1 0 1
- 0.02064 3 4 tcp 40 ------- 0 1.0 6.1 0 1
r 0.02064 3 4 tcp 40 ------- 0 2.0 7.1 0 2
+ 0.02064 4 5 tcp 40 ------- 0 2.0 7.1 0 2
- 0.02064 4 5 tcp 40 ------- 0 2.0 7.1 0 2
r 0.02064 4 5 tcp 40 ------- 0 3.0 8.1 0 3
+ 0.02064 5 6 tcp 40 ------- 0 3.0 8.1 0 3
- 0.02064 5 6 tcp 40 ------- 0 3.0 8.1 0 3
r 0.02064 5 6 tcp 40 ------- 0 4.0 9.1 0 4
+ 0.02064 6 7 tcp 40 ------- 0 4.0 9.1 0 4
- 0.02064 6 7 tcp 40 ------- 0 4.0 9.1 0 4
r 0.02064 6 7 tcp 40 ------- 0 5.0 10.1 0 5
+ 0.02064 7 8 tcp 40 ------- 0 5.0 10.1 0 5
- 0.02064 7 8 tcp 40 ------- 0 5.0 10.1 0 5
r 0.02064 7 8 tcp 40 ------- 0 6.0 11.1 0 6
+ 0.02064 8 9 tcp 40 ------- 0 6.0 11.1 0 6
- 0.02064 8 9 tcp 40 ------- 0 6.0 11.1 0 6
r 0.02064 8 9 tcp 40 ------- 0 7.0 12.1 0 7
+ 0.02064 9 10 tcp 40 ------- 0 7.0 12.1 0 7
- 0.02064 9 10 tcp 40 ------- 0 7.0 12.1 0 7
r 0.02064 9 10 tcp 40 ------- 0 8.0 13.1 0 8
+ 0.02064 10 11 tcp 40 ------- 0 8.0 13.1 0 8
- 0.02064 10 11 tcp 40 ------- 0 8.0 13.1 0 8
r 0.02064 10 11 tcp 40 ------- 0 9.0 14.1 0 9
+ 0.02064 11 12 tcp 40 ------- 0 9.0 14.1 0 9
- 0.02064 11 12 tcp 40 ------- 0 9.0 14.1 0 9
r 0.02064 11 12 tcp 40 ------- 0 10.0 15.1 0 10
+ 0.02064 12 13 tcp 40 ------- 0 10.0 15.1 0 10
- 0.02064 12 13 tcp 40 ------- 0 10.0 15.1 0 10
r 0.02064 12 13 tcp 40 ------- 0 11.0 16.1 0 11
+ 0.02064 13 14 tcp 40 ------- 0 11.0 16.1 0 11
- 0.02064 13 14 tcp 40 ------- 0 11.0 16.1 0 11
r 0.02064 13 14 tcp 40 ------- 0 12.0 17.1 0 12
+ 0.02064 14 15 tcp 40 ------- 0 12.0 17.1 0 12
- 0.02064 14 15 tcp 40 ------- 0 12.0 17.1 0 12
r 0.02064 14 15 tcp 40 ------- 0 13.0 18.1 0 13
+ 0.02064 15 16 tcp 40 ------- 0 13.0 18.1 0 13
- 0.02064 15 16 tcp 40 ------- 0 13.0 18.1 0 13
r 0.02064 15 16 tcp 40 ------- 0 14.0 19.1 0 14
+ 0.02064 16 17 tcp 40 ------- 0 14.0 19.1 0 14
- 0.02064 16 17 tcp 40 ------- 0 14.0 19.1 0 14
r 0.02064 16 17 tcp 40 ------- 0 15.0 20.1 0 15
+ 0.02064 17 18 tcp 40 ------- 0 15.0 20.1 0 15
- 0.02064 17 18 tcp 40 ------- 0 15.0 20.1 0 15
r 0.03096 2 3 tcp 40 ------- 0 0.0 5.1 0 0
+ 0.03096 3 4 tcp 40 ------- 0 0.0 5.1 0 0
- 0.03096 3 4 tcp 40 ------- 0 0.0 5.1 0 0
r 0.03096 3 4 tcp 40 ------- 0 1.0 6.1 0 1
+ 0.03096 4 5 tcp 40 ------- 0 1.0 6.1 0 1
- 0.03096 4 5 tcp 40 ------- 0 1.0 6.1 0 1
r 0.03096 4 5 tcp 40 ------- 0 2.0 7.1 0 2
+ 0.03096 5 6 tcp 40 ------- 0 2.0 7.1 0 2
- 0.03096 5 6 tcp 40 ------- 0 2.0 7.1 0 2
r 0.03096 5 6 tcp 40 ------- 0 3.0 8.1 0 3
+ 0.03096 6 7 tcp 40 ------- 0 3.0 8.1 0 3
- 0.03096 6 7 tcp 40 ------- 0 3.0 8.1 0 3
r 0.03096 6 7 tcp 40 ------- 0 4.0 9.1 0 4
+ 0.03096 7 8 tcp 40 ------- 0 4.0 9.1 0 4
- 0.03096 7 8 tcp 40 ------- 0 4.0 9.1 0 4
r 0.03096 7 8 tcp 40 ------- 0 5.0 10.1 0 5
+ 0.03096 8 9 tcp 40 ------- 0 5.0 10.1 0 5
- 0.03096 8 9 tcp 40 ------- 0 5.0 10.1 0 5
r 0.03096 8 9 tcp 40 ------- 0 6.0 11.1 0 6
+ 0.03096 9 10 tcp 40 ------- 0 6.0 11.1 0 6
- 0.03096 9 10 tcp 40 ------- 0 6.0 11.1 0 6
r 0.03096 9 10 tcp 40 ------- 0 7.0 12.1 0 7
+ 0.03096 10 11 tcp 40 ------- 0 7.0 12.1 0 7
- 0.03096 10 11 tcp 40 ------- 0 7.0 12.1 0 7
r 0.03096 10 11 tcp 40 ------- 0 8.0 13.1 0 8
+ 0.03096 11 12 tcp 40 ------- 0 8.0 13.1 0 8
- 0.03096 11 12 tcp 40 ------- 0 8.0 13.1 0 8
r 0.03096 11 12 tcp 40 ------- 0 9.0 14.1 0 9
+ 0.03096 12 13 tcp 40 ------- 0 9.0 14.1 0 9
- 0.03096 12 13 tcp 40 ------- 0 9.0 14.1 0 9
r 0.03096 12 13 tcp 40 ------- 0 10.0 15.1 0 10
+ 0.03096 13 14 tcp 40 ------- 0 10.0 15.1 0 10
- 0.03096 13 14 tcp 40 ------- 0 10.0 15.1 0 10
r 0.03096 13 14 tcp 40 ------- 0 11.0 16.1 0 11
+ 0.03096 14 15 tcp 40 ------- 0 11.0 16.1 0 11
- 0.03096 14 15 tcp 40 ------- 0 11.0 16.1 0 11
r 0.03096 14 15 tcp 40 ------- 0 12.0 17.1 0 12
+ 0.03096 15 16 tcp 40 ------- 0 12.0 17.1 0 12
- 0.03096 15 16 tcp 40 ------- 0 12.0 17.1 0 12
r 0.03096 15 16 tcp 40 ------- 0 13.0 18.1 0 13
+ 0.03096 16 17 tcp 40 ------- 0 13.0 18.1 0 13
- 0.03096 16 17 tcp 40 ------- 0 13.0 18.1 0 13
r 0.03096 16 17 tcp 40 ------- 0 14.0 19.1 0 14
+ 0.03096 17 18 tcp 40 ------- 0 14.0 19.1 0 14
- 0.03096 17 18 tcp 40 ------- 0 14.0 19.1 0 14
r 0.03096 17 18 tcp 40 ------- 0 15.0 20.1 0 15
+ 0.03096 18 19 tcp 40 ------- 0 15.0 20.1 0 15
- 0.03096 18 19 tcp 40 ------- 0 15.0 20.1 0 15
r 0.04128 3 4 tcp 40 ------- 0 0.0 5.1 0 0
+ 0.04128 4 5 tcp 40 ------- 0 0.0 5.1 0 0
- 0.04128 4 5 tcp 40 ------- 0 0.0 5.1 0 0
r 0.04128 4 5 tcp 40 ------- 0 1.0 6.1 0 1
+ 0.04128 5 6 tcp 40 ------- 0 1.0 6.1 0 1
- 0.04128 5 6 tcp 40 ------- 0 1.0 6.1 0 1
r 0.04128 5 6 tcp 40 ------- 0 2.0 7.1 0 2
+ 0.04128 6 7 tcp 40 ------- 0 2.0 7.1 0 2
- 0.04128 6 7 tcp 40 ------- 0 2.0 7.1 0 2
r 0.04128 6 7 tcp 40 ------- 0 3.0 8.1 0 3
+ 0.04128 7 8 tcp 40 ------- 0 3.0 8.1 0 3
- 0.04128 7 8 tcp 40 ------- 0 3.0 8.1 0 3
r 0.04128 7 8 tcp 40 ------- 0 4.0 9.1 0 4
+ 0.04128 8 9 tcp 40 ------- 0 4.0 9.1 0 4
- 0.04128 8 9 tcp 40 ------- 0 4.0 9.1 0 4
r 0.04128 8 9 tcp 40 ------- 0 5.0 10.1 0 5
+ 0.04128 9 10 tcp 40 ------- 0 5.0 10.1 0 5
- 0.04128 9 10 tcp 40 ------- 0 5.0 10.1 0 5
r 0.04128 9 10 tcp 40 ------- 0 6.0 11.1 0 6
+ 0.04128 10 11 tcp 40 ------- 0 6.0 11.1 0 6
- 0.04128 10 11 tcp 40 ------- 0 6.0 11.1 0 6
r 0.04128 10 11 tcp 40 ------- 0 7.0 12.1 0 7
+ 0.04128 11 12 tcp 40 ------- 0 7.0 12.1 0 7
- 0.04128 11 12 tcp 40 ------- 0 7.0 12.1 0 7
r 0.04128 11 12 tcp 40 ------- 0 8.0 13.1 0 8
+ 0.04128 12 13 tcp 40 ------- 0 8.0 13.1 0 8
- 0.04128 12 13 tcp 40 ------- 0 8.0 13.1 0 8
r 0.04128 12 13 tcp 40 ------- 0 9.0 14.1 0 9
+ 0.04128 13 14 tcp 40 ------- 0 9.0 14.1 0 9
- 0.04128 13 14 tcp 40 ------- 0 9.0 14.1 0 9
r 0.04128 13 14 tcp 40 ------- 0 10.0 15.1 0 10
+ 0.04128 14 15 tcp 40 ------- 0 10.0 15.1 0 10
- 0.04128 14 15 tcp 40 ------- 0 10.0 15.1 0 10
r 0.04128 14 15 tcp 40 ------- 0 11.0 16.1 0 11
+ 0.04128 15 16 tcp 40 ------- 0 11.0 16.1 0 11
- 0.04128 15 16 tcp 40 ------- 0 11.0 16.1 0 11
r 0.04128 15 16 tcp 40 ------- 0 12.0 17.1 0 12
+ 0.04128 16 17 tcp 40 ------- 0 12.0 17.1 0 12
- 0.04128 16 17 tcp 40 ------- 0 12.0 17.1 0 12
r 0.04128 16 17 tcp 40 ------- 0 13.0 18.1 0 13
+ 0.04128 17 18 tcp 40 ------- 0 13.0 18.1 0 13
- 0.04128 17 18 tcp 40 ------- 0 13.0 18.1 0 13
r 0.04128 17 18 tcp 40 ------- 0 14.0 19.1 0 14
+ 0.04128 18 19 tcp 40 ------- 0 14.0 19.1 0 14
- 0.04128 18 19 tcp 40 ------- 0 14.0 19.1 0 14
r 0.04128 18 19 tcp 40 ------- 0 15.0 20.1 0 15
+ 0.04128 19 20 tcp 40 ------- 0 15.0 20.1 0 15
- 0.04128 19 20 tcp 40 ------- 0 15.0 20.1 0 15
r 0.0516 4 5 tcp 40 ------- 0 0.0 5.1 0 0
+ 0.0516 5 4 ack 40 ------- 0 5.1 0.0 0 16
- 0.0516 5 4 ack 40 ------- 0 5.1 0.0 0 16
r 0.0516 5 6 tcp 40 ------- 0 1.0 6.1 0 1
+ 0.0516 6 5 ack 40 ------- 0 6.1 1.0 0 17
- 0.0516 6 5 ack 40 ------- 0 6.1 1.0 0 17
r 0.0516 6 7 tcp 40 ------- 0 2.0 7.1 0 2
+ 0.0516 7 6 ack 40 ------- 0 7.1 2.0 0 18
- 0.0516 7 6 ack 40 ------- 0 7.1 2.0 0 18
r 0.0516 7 8 tcp 40 ------- 0 3.0 8.1 0 3
+ 0.0516 8 7 ack 40 ------- 0 8.1 3.0 0 19
- 0.0516 8 7 ack 40 ------- 0 8.1 3.0 0 19
r 0.0516 8 9 tcp 40 ------- 0 4.0 9.1 0 4
+ 0.0516 9 8 ack 40 ------- 0 9.1 4.0 0 20
- 0.0516 9 8 ack 40 ------- 0 9.1 4.0 0 20
r 0.0516 9 10 tcp 40 ------- 0 5.0 10.1 0 5
+ 0.0516 10 9 ack 40 ------- 0 10.1 5.0 0 21
- 0.0516 10 9 ack 40 ------- 0 10.1 5.0 0 21
r 0.0516 10 11 tcp 40 ------- 0 6.0 11.1 0 6
+ 0.0516 11 10 ack 40 ------- 0 11.1 6.0 0 22
- 0.0516 11 10 ack 40 ------- 0 11.1 6.0 0 22
r 0.0516 11 12 tcp 40 ------- 0 7.0 12.1 0 7
+ 0.0516 12 11 ack 40 ------- 0 12.1 7.0 0 23
- 0.0516 12 11 ack 40 ------- 0 12.1 7.0 0 23
r 0.0516 12 13 tcp 40 ------- 0 8.0 13.1 0 8
+ 0.0516 13 12 ack 40 ------- 0 13.1 8.0 0 24
- 0.0516 13 12 ack 40 ------- 0 13.1 8.0 0 24
r 0.0516 13 14 tcp 40 ------- 0 9.0 14.1 0 9
+ 0.0516 14 13 ack 40 ------- 0 14.1 9.0 0 25
- 0.0516 14 13 ack 40 ------- 0 14.1 9.0 0 25
r 0.0516 14 15 tcp 40 ------- 0 10.0 15.1 0 10
+ 0.0516 15 14 ack 40 ------- 0 15.1 10.0 0 26
- 0.0516 15 14 ack 40 ------- 0 15.1 10.0 0 26
r 0.0516 15 16 tcp 40 ------- 0 11.0 16.1 0 11
+ 0.0516 16 15 ack 40 ------- 0 16.1 11.0 0 27
- 0.0516 16 15 ack 40 ------- 0 16.1 11.0 0 27
r 0.0516 16 17 tcp 40 ------- 0 12.0 17.1 0 12
+ 0.0516 17 16 ack 40 ------- 0 17.1 12.0 0 28
- 0.0516 17 16 ack 40 ------- 0 17.1 12.0 0 28
r 0.0516 17 18 tcp 40 ------- 0 13.0 18.1 0 13
+ 0.0516 18 17 ack 40 ------- 0 18.1 13.0 0 29
- 0.0516 18 17 ack 40 ------- 0 18.1 13.0 0 29
r 0.0516 18 19 tcp 40 ------- 0 14.0 19.1 0 14
+ 0.0516 19 18 ack 40 ------- 0 19.1 14.0 0 30
- 0.0516 19 18 ack 40 ------- 0 19.1 14.0 0 30
r 0.0516 19 20 tcp 40 ------- 0 15.0 20.1 0 15
+ 0.0516 20 19 ack 40 ------- 0 20.1 15.0 0 31
- 0.0516 20 19 ack 40 ------- 0 20.1 15.0 0 31
r 0.06192 5 4 ack 40 ------- 0 5.1 0.0 0 16
+ 0.06192 4 3 ack 40 ------- 0 5.1 0.0 0 16
- 0.06192 4 3 ack 40 ------- 0 5.1 0.0 0 16
r 0.06192 6 5 ack 40 ------- 0 6.1 1.0 0 17
+ 0.06192 5 4 ack 40 ------- 0 6.1 1.0 0 17
- 0.06192 5 4 ack 40 ------- 0 6.1 1.0 0 17
r 0.06192 7 6 ack 40 ------- 0 7.1 2.0 0 18
+ 0.06192 6 5 ack 40 ------- 0 7.1 2.0 0 18
- 0.06192 6 5 ack 40 ------- 0 7.1 2.0 0 18
r 0.06192 8 7 ack 40 ------- 0 8.1 3.0 0 19
+ 0.06192 7 6 ack 40 ------- 0 8.1 3.0 0 19
- 0.06192 7 6 ack 40 ------- 0 8.1 3.0 0 19
r 0.06192 9 8 ack 40 ------- 0 9.1 4.0 0 20
+ 0.06192 8 7 ack 40 ------- 0 9.1 4.0 0 20
- 0.06192 8 7 ack 40 ------- 0 9.1 4.0 0 20
r 0.06192 10 9 ack 40 ------- 0 10.1 5.0 0 21
+ 0.06192 9 8 ack 40 ------- 0 10.1 5.0 0 21
- 0.06192 9 8 ack 40 ------- 0 10.1 5.0 0 21
r 0.06192 11 10 ack 40 ------- 0 11.1 6.0 0 22
+ 0.06192 10 9 ack 40 ------- 0 11.1 6.0 0 22
- 0.06192 10 9 ack 40 ------- 0 11.1 6.0 0 22
r 0.06192 12 11 ack 40 ------- 0 12.1 7.0 0 23
+ 0.06192 11 10 ack 40 ------- 0 12.1 7.0 0 23
- 0.06192 11 10 ack 40 ------- 0 12.1 7.0 0 23
r 0.06192 13 12 ack 40 ------- 0 13.1 8.0 0 24
+ 0.06192 12 11 ack 40 ------- 0 13.1 8.0 0 24
- 0.06192 12 11 ack 40 ------- 0 13.1 8.0 0 24
r 0.06192 14 13 ack 40 ------- 0 14.1 9.0 0 25
+ 0.06192 13 12 ack 40 ------- 0 14.1 9.0 0 25
- 0.06192 13 12 ack 40 ------- 0 14.1 9.0 0 25
r 0.06192 15 14 ack 40 ------- 0 15.1 10.0 0 26
+ 0.06192 14 13 ack 40 ------- 0 15.1 10.0 0 26
- 0.06192 14 13 ack 40 ------- 0 15.1 10.0 0 26
r 0.06192 16 15 ack 40 ------- 0 16.1 11.0 0 27
+ 0.06192 15 14 ack 40 ------- 0 16.1 11.0 0 27
- 0.06192 15 14 ack 40 ------- 0 16.1 11.0 0 27
r 0.06192 17 16 ack 40 ------- 0 17.1 12.0 0 28
+ 0.06192 16 15 ack 40 ------- 0 17.1 12.0 0 28
- 0.06192 16 15 ack 40 ------- 0 17.1 12.0 0 28
r 0.06192 18 17 ack 40 ------- 0 18.1 13.0 0 29
+ 0.06192 17 16 ack 40 ------- 0 18.1 13.0 0 29
- 0.06192 17 16 ack 40 ------- 0 18.1 13.0 0 29
r 0.06192 19 18 ack 40 ------- 0 19.1 14.0 0 30
+ 0.06192 18 17 ack 40 ------- 0 19.1 14.0 0 30
- 0.06192 18 17 ack 40 ------- 0 19.1 14.0 0 30
r 0.06192 20 19 ack 40 ------- 0 20.1 15.0 0 31
+ 0.06192 19 18 ack 40 ------- 0 20.1 15.0 0 31
- 0.06192 19 18 ack 40 ------- 0 20.1 15.0 0 31
r 0.07224 4 3 ack 40 ------- 0 5.1 0.0 0 16
+ 0.07224 3 2 ack 40 ------- 0 5.1 0.0 0 16
- 0.07224 3 2 ack 40 ------- 0 5.1 0.0 0 16
r 0.07224 5 4 ack 40 ------- 0 6.1 1.0 0 17
+ 0.07224 4 3 ack 40 ------- 0 6.1 1.0 0 17
- 0.07224 4 3 ack 40 ------- 0 6.1 1.0 0 17
r 0.07224 6 5 ack 40 ------- 0 7.1 2.0 0 18
+ 0.07224 5 4 ack 40 ------- 0 7.1 2.0 0 18
- 0.07224 5 4 ack 40 ------- 0 7.1 2.0 0 18
r 0.07224 7 6 ack 40 ------- 0 8.1 3.0 0 19
+ 0.07224 6 5 ack 40 ------- 0 8.1 3.0 0 19
- 0.07224 6 5 ack 40 ------- 0 8.1 3.0 0 19
r 0.07224 8 7 ack 40 ------- 0 9.1 4.0 0 20
+ 0.07224 7 6 ack 40 ------- 0 9.1 4.0 0 20
- 0.07224 7 6 ack 40 ------- 0 9.1 4.0 0 20
r 0.07224 9 8 ack 40 ------- 0 10.1 5.0 0 21
+ 0.07224 8 7 ack 40 ------- 0 10.1 5.0 0 21
- 0.07224 8 7 ack 40 ------- 0 10.1 5.0 0 21
r 0.07224 10 9 ack 40 ------- 0 11.1 6.0 0 22
+ 0.07224 9 8 ack 40 ------- 0 11.1 6.0 0 22
- 0.07224 9 8 ack 40 ------- 0 11.1 6.0 0 22
r 0.07224 11 10 ack 40 ------- 0 12.1 7.0 0 23
+ 0.07224 10 9 ack 40 ------- 0 12.1 7.0 0 23
- 0.07224 10 9 ack 40 ------- 0 12.1 7.0 0 23
r 0.07224 12 11 ack 40 ------- 0 13.1 8.0 0 24
+ 0.07224 11 10 ack 40 ------- 0 13.1 8.0 0 24
- 0.07224 11 10 ack 40 ------- 0 13.1 8.0 0 24
r 0.07224 13 12 ack 40 ------- 0 14.1 9.0 0 25
+ 0.07224 12 11 ack 40 ------- 0 14.1 9.0 0 25
- 0.07224 12 11 ack 40 ------- 0 14.1 9.0 0 25
r 0.07224 14 13 ack 40 ------- 0 15.1 10.0 0 26
+ 0.07224 13 12 ack 40 ------- 0 15.1 10.0 0 26
- 0.07224 13 12 ack 40 ------- 0 15.1 10.0 0 26
r 0.07224 15 14 ack 40 ------- 0 16.1 11.0 0 27
+ 0.07224 14 13 ack 40 ------- 0 16.1 11.0 0 27
- 0.07224 14 13 ack 40 ------- 0 16.1 11.0 0 27
r 0.07224 16 15 ack 40 ------- 0 17.1 12.0 0 28
+ 0.07224 15 14 ack 40 ------- 0 17.1 12.0 0 28
- 0.07224 15 14 ack 40 ------- 0 17.1 12.0 0 28
r 0.07224 17 16 ack 40 ------- 0 18.1 13.0 0 29
+ 0.07224 16 15 ack 40 ------- 0 18.1 13.0 0 29
- 0.07224 16 15 ack 40 ------- 0 18.1 13.0 0 29
r 0.07224 18 17 ack 40 ------- 0 19.1 14.0 0 30
+ 0.07224 17 16 ack 40 ------- 0 19.1 14.0 0 30
- 0.07224 17 16 ack 40 ------- 0 19.1 14.0 0 30
r 0.07224 19 18 ack 40 ------- 0 20.1 15.0 0 31
+ 0.07224 18 17 ack 40 ------- 0 20.1 15.0 0 31
- 0.07224 18 17 ack 40 ------- 0 20.1 15.0 0 31
r 0.08256 3 2 ack 40 ------- 0 5.1 0.0 0 16
+ 0.08256 2 1 ack 40 ------- 0 5.1 0.0 0 16
- 0.08256 2 1 ack 40 ------- 0 5.1 0.0 0 16
r 0.08256 4 3 ack 40 ------- 0 6.1 1.0 0 17
+ 0.08256 3 2 ack 40 ------- 0 6.1 1.0 0 17
- 0.08256 3 2 ack 40 ------- 0 6.1 1.0 0 17
r 0.08256 5 4 ack 40 ------- 0 7.1 2.0 0 18
+ 0.08256 4 3 ack 40 ------- 0 7.1 2.0 0 18
- 0.08256 4 3 ack 40 ------- 0 7.1 2.0 0 18
r 0.08256 6 5 ack 40 ------- 0 8.1 3.0 0 19
+ 0.08256 5 4 ack 40 ------- 0 8.1 3.0 0 19
- 0.08256 5 4 ack 40 ------- 0 8.1 3.0 0 19
r 0.08256 7 6 ack 40 ------- 0 9.1 4.0 0 20
+ 0.08256 6 5 ack 40 ------- 0 9.1 4.0 0 20
- 0.08256 6 5 ack 40 ------- 0 9.1 4.0 0 20
r 0.08256 8 7 ack 40 ------- 0 10.1 5.0 0 21
+ 0.08256 7 6 ack 40 ------- 0 10.1 5.0 0 21
- 0.08256 7 6 ack 40 ------- 0 10.1 5.0 0 21
r 0.08256 9 8 ack 40 ------- 0 11.1 6.0 0 22
+ 0.08256 8 7 ack 40 ------- 0 11.1 6.0 0 22
- 0.08256 8 7 ack 40 ------- 0 11.1 6.0 0 22
r 0.08256 10 9 ack 40 ------- 0 12.1 7.0 0 23
+ 0.08256 9 8 ack 40 ------- 0 12.1 7.0 0 23
- 0.08256 9 8 ack 40 ------- 0 12.1 7.0 0 23
r 0.08256 11 10 ack 40 ------- 0 13.1 8.0 0 24
+ 0.08256 10 9 ack 40 ------- 0 13.1 8.0 0 24
- 0.08256 10 9 ack 40 ------- 0 13.1 8.0 0 24
r 0.08256 12 11 ack 40 ------- 0 14.1 9.0 0 25
+ 0.08256 11 10 ack 40 ------- 0 14.1 9.0 0 25
- 0.08256 11 10 ack 40 ------- 0 14.1 9.0 0 25
r 0.08256 13 12 ack 40 ------- 0 15.1 10.0 0 26
+ 0.08256 12 11 ack 40 ------- 0 15.1 10.0 0 26
- 0.08256 12 11 ack 40 ------- 0 15.1 10.0 0 26
r 0.08256 14 13 ack 40 ------- 0 16.1 11.0 0 27
+ 0.08256 13 12 ack 40 ------- 0 16.1 11.0 0 27
- 0.08256 13 12 ack 40 ------- 0 16.1 11.0 0 27
r 0.08256 15 14 ack 40 ------- 0 17.1 12.0 0 28
+ 0.08256 14 13 ack 40 ------- 0 17.1 12.0 0 28
- 0.08256 14 13 ack 40 ------- 0 17.1 12.0 0 28
r 0.08256 16 15 ack 40 ------- 0 18.1 13.0 0 29
+ 0.08256 15 14 ack 40 ------- 0 18.1 13.0 0 29
- 0.08256 15 14 ack 40 ------- 0 18.1 13.0 0 29
r 0.08256 17 16 ack 40 ------- 0 19.1 14.0 0 30
+ 0.08256 16 15 ack 40 ------- 0 19.1 14.0 0 30
- 0.08256 16 15 ack 40 ------- 0 19.1 14.0 0 30
r 0.08256 18 17 ack 40 ------- 0 20.1 15.0 0 31
+ 0.08256 17 16 ack 40 ------- 0 20.1 15.0 0 31
- 0.08256 17 16 ack 40 ------- 0 20.1 15.0 0 31
r 0.09288 2 1 ack 40 ------- 0 5.1 0.0 0 16
+ 0.09288 1 0 ack 40 ------- 0 5.1 0.0 0 16
- 0.09288 1 0 ack 40 ------- 0 5.1 0.0 0 16
r 0.09288 3 2 ack 40 ------- 0 6.1 1.0 0 17
+ 0.09288 2 1 ack 40 ------- 0 6.1 1.0 0 17
- 0.09288 2 1 ack 40 ------- 0 6.1 1.0 0 17
r 0.09288 4 3 ack 40 ------- 0 7.1 2.0 0 18
+ 0.09288 3 2 ack 40 ------- 0 7.1 2.0 0 18
- 0.09288 3 2 ack 40 ------- 0 7.1 2.0 0 18
r 0.09288 5 4 ack 40 ------- 0 8.1 3.0 0 19
+ 0.09288 4 3 ack 40 ------- 0 8.1 3.0 0 19
- 0.09288 4 3 ack 40 ------- 0 8.1 3.0 0 19
r 0.09288 6 5 ack 40 ------- 0 9.1 4.0 0 20
+ 0.09288 5 4 ack 40 ------- 0 9.1 4.0 0 20
- 0.09288 5 4 ack 40 ------- 0 9.1 4.0 0 20
r 0.09288 7 6 ack 40 ------- 0 10.1 5.0 0 21
+ 0.09288 6 5 ack 40 ------- 0 10.1 5.0 0 21
- 0.09288 6 5 ack 40 ------- 0 10.1 5.0 0 21
r 0.09288 8 7 ack 40 ------- 0 11.1 6.0 0 22
+ 0.09288 7 6 ack 40 ------- 0 11.1 6.0 0 22
- 0.09288 7 6 ack 40 ------- 0 11.1 6.0 0 22
r 0.09288 9 8 ack 40 ------- 0 12.1 7.0 0 23
+ 0.09288 8 7 ack 40 ------- 0 12.1 7.0 0 23
- 0.09288 8 7 ack 40 ------- 0 12.1 7.0 0 23
r 0.09288 10 9 ack 40 ------- 0 13.1 8.0 0 24
+ 0.09288 9 8 ack 40 ------- 0 13.1 8.0 0 24
- 0.09288 9 8 ack 40 ------- 0 13.1 8.0 0 24
r 0.09288 11 10 ack 40 ------- 0 14.1 9.0 0 25
+ 0.09288 10 9 ack 40 ------- 0 14.1 9.0 0 25
- 0.09288 10 9 ack 40 ------- 0 14.1 9.0 0 25
r 0.09288 12 11 ack 40 ------- 0 15.1 10.0 0 26
+ 0.09288 11 10 ack 40 ------- 0 15.1 10.0 0 26
- 0.09288 11 10 ack 40 ------- 0 15.1 10.0 0 26
r 0.09288 13 12 ack 40 ------- 0 16.1 11.0 0 27
+ 0.09288 12 11 ack 40 ------- 0 16.1 11.0 0 27
- 0.09288 12 11 ack 40 ------- 0 16.1 11.0 0 27
r 0.09288 14 13 ack 40 ------- 0 17.1 12.0 0 28
+ 0.09288 13 12 ack 40 ------- 0 17.1 12.0 0 28
- 0.09288 13 12 ack 40 ------- 0 17.1 12.0 0 28
r 0.09288 15 14 ack 40 ------- 0 18.1 13.0 0 29
+ 0.09288 14 13 ack 40 ------- 0 18.1 13.0 0 29
- 0.09288 14 13 ack 40 ------- 0 18.1 13.0 0 29
r 0.09288 16 15 ack 40 ------- 0 19.1 14.0 0 30
+ 0.09288 15 14 ack 40 ------- 0 19.1 14.0 0 30
- 0.09288 15 14 ack 40 ------- 0 19.1 14.0 0 30
r 0.09288 17 16 ack 40 ------- 0 20.1 15.0 0 31
+ 0.09288 16 15 ack 40 ------- 0 20.1 15.0 0 31
- 0.09288 16 15 ack 40 ------- 0 20.1 15.0 0 31
r 0.1032 1 0 ack 40 ------- 0 5.1 0.0 0 16
+ 0.1032 0 1 tcp 1040 ------- 0 0.0 5.1 1 32
- 0.1032 0 1 tcp 1040 ------- 0 0.0 5.1 1 32
+ 0.1032 0 1 tcp 1040 ------- 0 0.0 5.1 2 33
r 0.1032 2 1 ack 40 ------- 0 6.1 1.0 0 17
+ 0.1032 1 2 tcp 1040 ------- 0 1.0 6.1 1 34
- 0.1032 1 2 tcp 1040 ------- 0 1.0 6.1 1 34
+ 0.1032 1 2 tcp 1040 ------- 0 1.0 6.1 2 35
r 0.1032 3 2 ack 40 ------- 0 7.1 2.0 0 18
+ 0.1032 2 3 tcp 1040 ------- 0 2.0 7.1 1 36
- 0.1032 2 3 tcp 1040 ------- 0 2.0 7.1 1 36
+ 0.1032 2 3 tcp 1040 ------- 0 2.0 7.1 2 37
r 0.1032 4 3 ack 40 ------- 0 8.1 3.0 0 19
+ 0.1032 3 4 tcp 1040 ------- 0 3.0 8.1 1 38
- 0.1032 3 4 tcp 1040 ------- 0 3.0 8.1 1 38
+ 0.1032 3 4 tcp 1040 ------- 0 3.0 8.1 2 39
r 0.1032 5 4 ack 40 ------- 0 9.1 4.0 0 20
+ 0.1032 4 5 tcp 1040 ------- 0 4.0 9.1 1 40
- 0.1032 4 5 tcp 1040 ------- 0 4.0 9.1 1 40
+ 0.1032 4 5 tcp 1040 ------- 0 4.0 9.1 2 41
r 0.1032 6 5 ack 40 ------- 0 10.1 5.0 0 21
+ 0.1032 5 6 tcp 1040 ------- 0 5.0 10.1 1 42
- 0.1032 5 6 tcp 1040 ------- 0 5.0 10.1 1 42
+ 0.1032 5 6 tcp 1040 ------- 0 5.0 10.1 2 43
r 0.1032 7 6 ack 40 ------- 0 11.1 6.0 0 22
+ 0.1032 6 7 tcp 1040 ------- 0 6.0 11.1 1 44
- 0.1032 6 7 tcp 1040 ------- 0 6.0 11.1 1 44
+ 0.1032 6 7 tcp 1040 ------- 0 6.0 11.1 2 45
r 0.1032 8 7 ack 40 ------- 0 12.1 7.0 0 23
+ 0.1032 7 8 tcp 1040 ------- 0 7.0 12.1 1 46
- 0.1032 7 8 tcp 1040 ------- 0 7.0 12.1 1 46
+ 0.1032 7 8 tcp 1040 ------- 0 7.0 12.1 2 47
r 0.1032 9 8 ack 40 ------- 0 13.1 8.0 0 24
+ 0.1032 8 9 tcp 1040 ------- 0 8.0 13.1 1 48
- 0.1032 8 9 tcp 1040 ------- 0 8.0 13.1 1 48
+ 0.1032 8 9 tcp 1040 ------- 0 8.0 13.1 2 49
r 0.1032 10 9 ack 40 ------- 0 14.1 9.0 0 25
+ 0.1032 9 10 tcp 1040 ------- 0 9.0 14.1 1 50
- 0.1032 9 10 tcp 1040 ------- 0 9.0 14.1 1 50
+ 0.1032 9 10 tcp 1040 ------- 0 9.0 14.1 2 51
r 0.1032 11 10 ack 40 ------- 0 15.1 10.0 0 26
+ 0.1032 10 11 tcp 1040 ------- 0 10.0 15.1 1 52
- 0.1032 10 11 tcp 1040 ------- 0 10.0 15.1 1 52
+ 0.1032 10 11 tcp 1040 ------- 0 10.0 15.1 2 53
r 0.1032 12 11 ack 40 ------- 0 16.1 11.0 0 27
+ 0.1032 11 12 tcp 1040 ------- 0 11.0 16.1 1 54
- 0.1032 11 12 tcp 1040 ------- 0 11.0 16.1 1 54
+ 0.1032 11 12 tcp 1040 ------- 0 11.0 16.1 2 55
r 0.1032 13 12 ack 40 ------- 0 17.1 12.0 0 28
+ 0.1032 12 13 tcp 1040 ------- 0 12.0 17.1 1 56
- 0.1032 12 13 tcp 1040 ------- 0 12.0 17.1 1 56
+ 0.1032 12 13 tcp 1040 ------- 0 12.0 17.1 2 57
r 0.1032 14 13 ack 40 ------- 0 18.1 13.0 0 29
+ 0.1032 13 14 tcp 1040 ------- 0 13.0 18.1 1 58
- 0.1032 13 14 tcp 1040 ------- 0 13.0 18.1 1 58
+ 0.1032 13 14 tcp 1040 ------- 0 13.0 18.1 2 59
r 0.1032 15 14 ack 40 ------- 0 19.1 14.0 0 30
+ 0.1032 14 15 tcp 1040 ------- 0 14.0 19.1 1 60
- 0.1032 14 15 tcp 1040 ------- 0 14.0 19.1 1 60
+ 0.1032 14 15 tcp 1040 ------- 0 14.0 19.1 2 61
r 0.1032 16 15 ack 40 ------- 0 20.1 15.0 0 31
+ 0.1032 15 16 tcp 1040 ------- 0 15.0 20.1 1 62
- 0.1032 15 16 tcp 1040 ------- 0 15.0 20.1 1 62
+ 0.1032 15 16 tcp 1040 ------- 0 15.0 20.1 2 63
- 0.11152 0 1 tcp 1040 ------- 0 0.0 5.1 2 33
- 0.11152 1 2 tcp 1040 ------- 0 1.0 6.1 2 35
- 0.11152 2 3 tcp 1040 ------- 0 2.0 7.1 2 37
- 0.11152 3 4 tcp 1040 ------- 0 3.0 8.1 2 39
- 0.11152 4 5 tcp 1040 ------- 0 4.0 9.1 2 41
- 0.11152 5 6 tcp 1040 ------- 0 5.0 10.1 2 43
- 0.11152 6 7 tcp 1040 ------- 0 6.0 11.1 2 45
- 0.11152 7 8 tcp 1040 ------- 0 7.0 12.1 2 47
- 0.11152 8 9 tcp 1040 ------- 0 8.0 13.1 2 49
- 0.11152 9 10 tcp 1040 ------- 0 9.0 14.1 2 51
- 0.11152 10 11 tcp 1040 ------- 0 10.0 15.1 2 53
- 0.11152 11 12 tcp 1040 ------- 0 11.0 16.1 2 55
- 0.11152 12 13 tcp 1040 ------- 0 12.0 17.1 2 57
- 0.11152 13 14 tcp 1040 ------- 0 13.0 18.1 2 59
- 0.11152 14 15 tcp 1040 ------- 0 14.0 19.1 2 61
- 0.11152 15 16 tcp 1040 ------- 0 15.0 20.1 2 63
r 0.12152 0 1 tcp 1040 ------- 0 0.0 5.1 1 32
+ 0.12152 1 2 tcp 1040 ------- 0 0.0 5.1 1 32
- 0.12152 1 2 tcp 1040 ------- 0 0.0 5.1 1 32
r 0.12152 1 2 tcp 1040 ------- 0 1.0 6.1 1 34
+ 0.12152 2 3 tcp 1040 ------- 0 1.0 6.1 1 34
- 0.12152 2 3 tcp 1040 ------- 0 1.0 6.1 1 34
r 0.12152 2 3 tcp 1040 ------- 0 2.0 7.1 1 36
+ 0.12152 3 4 tcp 1040 ------- 0 2.0 7.1 1 36
- 0.12152 3 4 tcp 1040 ------- 0 2.0 7.1 1 36
r 0.12152 3 4 tcp 1040 ------- 0 3.0 8.1 1 38
+ 0.12152 4 5 tcp 1040 ------- 0 3.0 8.1 1 38
- 0.12152 4 5 tcp 1040 ------- 0 3.0 8.1 1 38
r 0.12152 4 5 tcp 1040 ------- 0 4.0 9.1 1 40
+ 0.12152 5 6 tcp 1040 ------- 0 4.0 9.1 1 40
- 0.12152 5 6 tcp 1040 ------- 0 4.0 9.1 1 40
r 0.12152 5 6 tcp 1040 ------- 0 5.0 10.1 1 42
+ 0.12152 6 7 tcp 1040 ------- 0 5.0 10.1 1 42
- 0.12152 6 7 tcp 1040 ------- 0 5.0 10.1 1 42
r 0.12152 6 7 tcp 1040 ------- 0 6.0 11.1 1 44
+ 0.12152 7 8 tcp 1040 ------- 0 6.0 11.1 1 44
- 0.12152 7 8 tcp 1040 ------- 0 6.0 11.1 1 44
r 0.12152 7 8 tcp 1040 ------- 0 7.0 12.1 1 46
+ 0.12152 8 9 tcp 1040 ------- 0 7.0 12.1 1 46
- 0.12152 8 9 tcp 1040 ------- 0 7.0 12.1 1 46
r 0.12152 8 9 tcp 1040 ------- 0 8.0 13.1 1 48
+ 0.12152 9 10 tcp 1040 ------- 0 8.0 13.1 1 48
- 0.12152 9 10 tcp 1040 ------- 0 8.0 13.1 1 48
r 0.12152 9 10 tcp 1040 ------- 0 9.0 14.1 1 50
+ 0.12152 10 11 tcp 1040 ------- 0 9.0 14.1 1 50
- 0.12152 10 11 tcp 1040 ------- 0 9.0 14.1 1 50
r 0.12152 10 11 tcp 1040 ------- 0 10.0 15.1 1 52
+ 0.12152 11 12 tcp 1040 ------- 0 10.0 15.1 1 52
- 0.12152 11 12 tcp 1040 ------- 0 10.0 15.1 1 52
r 0.12152 11 12 tcp 1040 ------- 0 11.0 16.1 1 54
+ 0.12152 12 13 tcp 1040 ------- 0 11.0 16.1 1 54
- 0.12152 12 13 tcp 1040 ------- 0 11.0 16.1 1 54
r 0.12152 12 13 tcp 1040 ------- 0 12.0 17.1 1 56
+ 0.12152 13 14 tcp 1040 ------- 0 12.0 17.1 1 56
- 0.12152 13 14 tcp 1040 ------- 0 12.0 17.1 1 56
r 0.12152 13 14 tcp 1040 ------- 0 13.0 18.1 1 58
+ 0.12152 14 15 tcp 1040 ------- 0 13.0 18.1 1 58
- 0.12152 14 15 tcp 1040 ------- 0 13.0 18.1 1 58
r 0.12152 14 15 tcp 1040 ------- 0 14.0 19.1 1 60
+ 0.12152 15 16 tcp 1040 ------- 0 14.0 19.1 1 60
- 0.12152 15 16 tcp 1040 ------- 0 14.0 19.1 1 60
r 0.12152 15 16 tcp 1040 ------- 0 15.0 20.1 1 62
+ 0.12152 16 17 tcp 1040 ------- 0 15.0 20.1 1 62
- 0.12152 16 17 tcp 1040 ------- 0 15.0 20.1 1 62
r 0.12984 0 1 tcp 1040 ------- 0 0.0 5.1 2 33
+ 0.12984 1 2 tcp 1040 ------- 0 0.0 5.1 2 33
r 0.12984 1 2 tcp 1040 ------- 0 1.0 6.1 2 35
+ 0.12984 2 3 tcp 1040 ------- 0 1.0 6.1 2 35
r 0.12984 2 3 tcp 1040 ------- 0 2.0 7.1 2 37
+ 0.12984 3 4 tcp 1040 ------- 0 2.0 7.1 2 37
r 0.12984 3 4 tcp 1040 ------- 0 3.0 8.1 2 39
+ 0.12984 4 5 tcp 1040 ------- 0 3.0 8.1 2 39
r 0.12984 4 5 tcp 1040 ------- 0 4.0 9.1 2 41
+ 0.12984 5 6 tcp 1040 ------- 0 4.0 9.1 2 41
r 0.12984 5 6 tcp 1040 ------- 0 5.0 10.1 2 43
+ 0.12984 6 7 tcp 1040 ------- 0 5.0 10.1 2 43
r 0.12984 6 7 tcp 1040 ------- 0 6.0 11.1 2 45
+ 0.12984 7 8 tcp 1040 ------- 0 6.0 11.1 2 45
r 0.12984 7 8 tcp 1040 ------- 0 7.0 12.1 2 47
+ 0.12984 8 9 tcp 1040 ------- 0 7.0 12.1 2 47
r 0.12984 8 9 tcp 1040 ------- 0 8.0 13.1 2 49
+ 0.12984 9 10 tcp 1040 ------- 0 8.0 13.1 2 49
r 0.12984 9 10 tcp 1040 ------- 0 9.0 14.1 2 51
+ 0.12984 10 11 tcp 1040 ------- 0 9.0 14.1 2 51
r 0.12984 10 11 tcp 1040 ------- 0 10.0 15.1 2 53
+ 0.12984 11 12 tcp 1040 ------- 0 10.0 15.1 2 53
r 0.12984 11 12 tcp 1040 ------- 0 11.0 16.1 2 55
+ 0.12984 12 13 tcp 1040 ------- 0 11.0 16.1 2 55
r 0.12984 12 13 tcp 1040 ------- 0 12.0 17.1 2 57
+ 0.12984 13 14 tcp 1040 ------- 0 12.0 17.1 2 57
r 0.12984 13 14 tcp 1040 ------- 0 13.0 18.1 2 59
+ 0.12984 14 15 tcp 1040 ------- 0 13.0 18.1 2 59
r 0.12984 14 15 tcp 1040 ------- 0 14.0 19.1 2 61
+ 0.12984 15 16 tcp 1040 ------- 0 14.0 19.1 2 61
r 0.12984 15 16 tcp 1040 ------- 0 15.0 20.1 2 63
+ 0.12984 16 17 tcp 1040 ------- 0 15.0 20.1 2 63
- 0.12984 1 2 tcp 1040 ------- 0 0.0 5.1 2 33
- 0.12984 2 3 tcp 1040 ------- 0 1.0 6.1 2 35
- 0.12984 3 4 tcp 1040 ------- 0 2.0 7.1 2 37
- 0.12984 4 5 tcp 1040 ------- 0 3.0 8.1 2 39
- 0.12984 5 6 tcp 1040 ------- 0 4.0 9.1 2 41
- 0.12984 6 7 tcp 1040 ------- 0 5.0 10.1 2 43
- 0.12984 7 8 tcp 1040 ------- 0 6.0 11.1 2 45
- 0.12984 8 9 tcp 1040 ------- 0 7.0 12.1 2 47
- 0.12984 9 10 tcp 1040 ------- 0 8.0 13.1 2 49
- 0.12984 10 11 tcp 1040 ------- 0 9.0 14.1 2 51
- 0.12984 11 12 tcp 1040 ------- 0 10.0 15.1 2 53
- 0.12984 12 13 tcp 1040 ------- 0 11.0 16.1 2 55
- 0.12984 13 14 tcp 1040 ------- 0 12.0 17.1 2 57
- 0.12984 14 15 tcp 1040 ------- 0 13.0 18.1 2 59
- 0.12984 15 16 tcp 1040 ------- 0 14.0 19.1 2 61
- 0.12984 16 17 tcp 1040 ------- 0 15.0 20.1 2 63
r 0.13984 1 2 tcp 1040 ------- 0 0.0 5.1 1 32
+ 0.13984 2 3 tcp 1040 ------- 0 0.0 5.1 1 32
- 0.13984 2 3 tcp 1040 ------- 0 0.0 5.1 1 32
r 0.13984 2 3 tcp 1040 ------- 0 1.0 6.1 1 34
+ 0.13984 3 4 tcp 1040 ------- 0 1.0 6.1 1 34
- 0.13984 3 4 tcp 1040 ------- 0 1.0 6.1 1 34
r 0.13984 3 4 tcp 1040 ------- 0 2.0 7.1 1 36
+ 0.13984 4 5 tcp 1040 ------- 0 2.0 7.1 1 36
- 0.13984 4 5 tcp 1040 ------- 0 2.0 7.1 1 36
r 0.13984 4 5 tcp 1040 ------- 0 3.0 8.1 1 38
+ 0.13984 5 6 tcp 1040 ------- 0 3.0 8.1 1 38
- 0.13984 5 6 tcp 1040 ------- 0 3.0 8.1 1 38
r 0.13984 5 6 tcp 1040 ------- 0 4.0 9.1 1 40
+ 0.13984 6 7 tcp 1040 ------- 0 4.0 9.1 1 40