V -t * -v 1.0a5 -a 0
A -t * -n 1 -p 0 -o 0x7fffffff -c 30 -a 1
A -t * -h 1 -m 1073741823 -s 0
n -t * -a 0 -s 0 -S UP -v circle -c black -i black
n -t * -a 1 -s 1 -S UP -v circle -c black -i black
n -t * -a 2 -s 2 -S UP -v circle -c black -i black
n -t * -a 3 -s 3 -S UP -v circle -c black -i black
l -t * -s 0 -d 1 -S UP -r 5000000 -D 0.0050000000000000001 -c black
l -t * -s 2 -d 1 -S UP -r 5000000 -D 0.0050000000000000001 -c black
l -t * -s 3 -d 1 -S UP -r 5000000 -D 0.0050000000000000001 -c black
+ -t 1 -s 0 -d 1 -p tcp -e 40 -c 0 -i 0 -a 0 -x {0.0 1.0 0 ------- null}
- -t 1 -s 0 -d 1 -p tcp -e 40 -c 0 -i 0 -a 0 -x {0.0 1.0 0 ------- null}
h -t 1 -s 0 -d 1 -p tcp -e 40 -c 0 -i 0 -a 0 -x {0.0 1.0 -1 ------- null}
r -t 1.005064 -s 0 -d 1 -p tcp -e 40 -c 0 -i 0 -a 0 -x {0.0 1.0 0 ------- null}
+ -t 1.005064 -s 1 -d 0 -p ack -e 40 -c 0 -i 1 -a 0 -x {1.0 0.0 0 ------- null}
- -t 1.005064 -s 1 -d 0 -p ack -e 40 -c 0 -i 1 -a 0 -x {1.0 0.0 0 ------- null}
h -t 1.005064 -s 1 -d 0 -p ack -e 40 -c 0 -i 1 -a 0 -x {1.0 0.0 -1 ------- null}
r -t 1.010128 -s 1 -d 0 -p ack -e 40 -c 0 -i 1 -a 0 -x {1.0 0.0 0 ------- null}
+ -t 1.010128 -s 0 -d 1 -p tcp -e 10040 -c 0 -i 2 -a 0 -x {0.0 1.0 1 ------- null}
- -t 1.010128 -s 0 -d 1 -p tcp -e 10040 -c 0 -i 2 -a 0 -x {0.0 1.0 1 ------- null}
h -t 1.010128 -s 0 -d 1 -p tcp -e 10040 -c 0 -i 2 -a 0 -x {0.0 1.0 -1 ------- null}
+ -t 1.010128 -s 0 -d 1 -p tcp -e 10040 -c 0 -i 3 -a 0 -x {0.0 1.0 2 ------- null}
- -t 1.026192 -s 0 -d 1 -p tcp -e 10040 -c 0 -i 3 -a 0 -x {0.0 1.0 2 ------- null}
h -t 1.026192 -s 0 -d 1 -p tcp -e 10040 -c 0 -i 3 -a 0 -x {0.0 1.0 -1 ------- null}
r -t 1.031192 -s 0 -d 1 -p tcp -e 10040 -c 0 -i 2 -a 0 -x {0.0 1.0 1 ------- null}
+ -t 1.031192 -s 1 -d 0 -p ack -e 40 -c 0 -i 4 -a 0 -x {1.0 0.0 1 ------- null}
- -t 1.031192 -s 1 -d 0 -p ack -e 40 -c 0 -i 4 -a 0 -x {1.0 0.0 1 ------- null}
h -t 1.031192 -s 1 -d 0 -p ack -e 40 -c 0 -i 4 -a 0 -x {1.0 0.0 -1 ------- null}
r -t 1.036256 -s 1 -d 0 -p ack -e 40 -c 0 -i 4 -a 0 -x {1.0 0.0 1 ------- null}
+ -t 1.036256 -s 0 -d 1 -p tcp -e 10040 -c 0 -i 5 -a 0 -x {0.0 1.0 3 ------- null}
+ -t 1.036256 -s 0 -d 1 -p tcp -e 10040 -c 0 -i 6 -a 0 -x {0.0 1.0 4 ------- null}
d -t 1.036256 -s 0 -d 1 -p tcp -e 10040 -c 0 -i 6 -a 0 -x {0.0 1.0 4 ------- null}
- -t 1.042256 -s 0 -d 1 -p tcp -e 10040 -c 0 -i 5 -a 0 -x {0.0 1.0 3 ------- null}
h -t 1.042256 -s 0 -d 1 -p tcp -e 10040 -c 0 -i 5 -a 0 -x {0.0 1.0 -1 ------- null}
r -t 1.047256 -s 0 -d 1 -p tcp -e 10040 -c 0 -i 3 -a 0 -x {0.0 1.0 2 ------- null}
+ -t 1.047256 -s 1 -d 0 -p ack -e 40 -c 0 -i 7 -a 0 -x {1.0 0.0 2 ------- null}
- -t 1.047256 -s 1 -d 0 -p ack -e 40 -c 0 -i 7 -a 0 -x {1.0 0.0 2 ------- null}
h -t 1.047256 -s 1 -d 0 -p ack -e 40 -c 0 -i 7 -a 0 -x {1.0 0.0 -1 ------- null}
r -t 1.05232 -s 1 -d 0 -p ack -e 40 -c 0 -i 7 -a 0 -x {1.0 0.0 2 ------- null}
+ -t 1.05232 -s 0 -d 1 -p tcp -e 10040 -c 0 -i 8 -a 0 -x {0.0 1.0 5 ------- null}
+ -t 1.05232 -s 0 -d 1 -p tcp -e 10040 -c 0 -i 9 -a 0 -x {0.0 1.0 6 ------- null}
d -t 1.05232 -s 0 -d 1 -p tcp -e 10040 -c 0 -i 9 -a 0 -x {0.0 1.0 6 ------- null}
- -t 1.05832 -s 0 -d 1 -p tcp -e 10040 -c 0 -i 8 -a 0 -x {0.0 1.0 5 ------- null}
h -t 1.05832 -s 0 -d 1 -p tcp -e 10040 -c 0 -i 8 -a 0 -x {0.0 1.0 -1 ------- null}
r -t 1.06332 -s 0 -d 1 -p tcp -e 10040 -c 0 -i 5 -a 0 -x {0.0 1.0 3 ------- null}
+ -t 1.06332 -s 1 -d 0 -p ack -e 40 -c 0 -i 10 -a 0 -x {1.0 0.0 3 ------- null}
- -t 1.06332 -s 1 -d 0 -p ack -e 40 -c 0 -i 10 -a 0 -x {1.0 0.0 3 ------- null}
h -t 1.06332 -s 1 -d 0 -p ack -e 40 -c 0 -i 10 -a 0 -x {1.0 0.0 -1 ------- null}
r -t 1.068384 -s 1 -d 0 -p ack -e 40 -c 0 -i 10 -a 0 -x {1.0 0.0 3 ------- null}
+ -t 1.068384 -s 0 -d 1 -p tcp -e 10040 -c 0 -i 11 -a 0 -x {0.0 1.0 7 ------- null}
+ -t 1.068384 -s 0 -d 1 -p tcp -e 10040 -c 0 -i 12 -a 0 -x {0.0 1.0 8 ------- null}
d -t 1.068384 -s 0 -d 1 -p tcp -e 10040 -c 0 -i 12 -a 0 -x {0.0 1.0 8 ------- null}
- -t 1.074384 -s 0 -d 1 -p tcp -e 10040 -c 0 -i 11 -a 0 -x {0.0 1.0 7 ------- null}
h -t 1.074384 -s 0 -d 1 -p tcp -e 10040 -c 0 -i 11 -a 0 -x {0.0 1.0 -1 ------- null}
r -t 1.079384 -s 0 -d 1 -p tcp -e 10040 -c 0 -i 8 -a 0 -x {0.0 1.0 5 ------- null}
+ -t 1.079384 -s 1 -d 0 -p ack -e 40 -c 0 -i 13 -a 0 -x {1.0 0.0 3 ------- null}
- -t 1.079384 -s 1 -d 0 -p ack -e 40 -c 0 -i 13 -a 0 -x {1.0 0.0 3 ------- null}
h -t 1.079384 -s 1 -d 0 -p ack -e 40 -c 0 -i 13 -a 0 -x {1.0 0.0 -1 ------- null}
r -t 1.084448 -s 1 -d 0 -p ack -e 40 -c 0 -i 13 -a 0 -x {1.0 0.0 3 ------- null}
+ -t 1.084448 -s 0 -d 1 -p tcp -e 10040 -c 0 -i 14 -a 0 -x {0.0 1.0 9 ------- null}
- -t 1.090448 -s 0 -d 1 -p tcp -e 10040 -c 0 -i 14 -a 0 -x {0.0 1.0 9 ------- null}
h -t 1.090448 -s 0 -d 1 -p tcp -e 10040 -c 0 -i 14 -a 0 -x {0.0 1.0 -1 ------- null}
r -t 1.095448 -s 0 -d 1 -p tcp -e 10040 -c 0 -i 11 -a 0 -x {0.0 1.0 7 ------- null}
+ -t 1.095448 -s 1 -d 0 -p ack -e 40 -c 0 -i 15 -a 0 -x {1.0 0.0 3 ------- null}
- -t 1.095448 -s 1 -d 0 -p ack -e 40 -c 0 -i 15 -a 0 -x {1.0 0.0 3 ------- null}
h -t 1.095448 -s 1 -d 0 -p ack -e 40 -c 0 -i 15 -a 0 -x {1.0 0.0 -1 ------- null}
r -t 1.100512 -s 1 -d 0 -p ack -e 40 -c 0 -i 15 -a 0 -x {1.0 0.0 3 ------- null}
+ -t 1.100512 -s 0 -d 1 -p tcp -e 10040 -c 0 -i 16 -a 0 -x {0.0 1.0 10 ------- null}
- -t 1.106512 -s 0 -d 1 -p tcp -e 10040 -c 0 -i 16 -a 0 -x {0.0 1.0 10 ------- null}
h -t 1.106512 -s 0 -d 1 -p tcp -e 10040 -c 0 -i 16 -a 0 -x {0.0 1.0 -1 ------- null}
r -t 1.111512 -s 0 -d 1 -p tcp -e 10040 -c 0 -i 14 -a 0 -x {0.0 1.0 9 ------- null}
+ -t 1.111512 -s 1 -d 0 -p ack -e 40 -c 0 -i 17 -a 0 -x {1.0 0.0 3 ------- null}
- -t 1.111512 -s 1 -d 0 -p ack -e 40 -c 0 -i 17 -a 0 -x {1.0 0.0 3 ------- null}
h -t 1.111512 -s 1 -d 0 -p ack -e 40 -c 0 -i 17 -a 0 -x {1.0 0.0 -1 ------- null}
r -t 1.116576 -s 1 -d 0 -p ack -e 40 -c 0 -i 17 -a 0 -x {1.0 0.0 3 ------- null}
+ -t 1.116576 -s 0 -d 1 -p tcp -e 10040 -c 0 -i 18 -a 0 -x {0.0 1.0 4 ---A--- null}
- -t 1.122576 -s 0 -d 1 -p tcp -e 10040 -c 0 -i 18 -a 0 -x {0.0 1.0 4 ---A--- null}
h -t 1.122576 -s 0 -d 1 -p tcp -e 10040 -c 0 -i 18 -a 0 -x {0.0 1.0 -1 ---A--- null}
r -t 1.127576 -s 0 -d 1 -p tcp -e 10040 -c 0 -i 16 -a 0 -x {0.0 1.0 10 ------- null}
+ -t 1.127576 -s 1 -d 0 -p ack -e 40 -c 0 -i 19 -a 0 -x {1.0 0.0 3 ------- null}
- -t 1.127576 -s 1 -d 0 -p ack -e 40 -c 0 -i 19 -a 0 -x {1.0 0.0 3 ------- null}
h -t 1.127576 -s 1 -d 0 -p ack -e 40 -c 0 -i 19 -a 0 -x {1.0 0.0 -1 ------- null}
r -t 1.13264 -s 1 -d 0 -p ack -e 40 -c 0 -i 19 -a 0 -x {1.0 0.0 3 ------- null}
r -t 1.14364 -s 0 -d 1 -p tcp -e 10040 -c 0 -i 18 -a 0 -x {0.0 1.0 4 ---A--- null}
+ -t 1.14364 -s 1 -d 0 -p ack -e 40 -c 0 -i 20 -a 0 -x {1.0 0.0 5 ------- null}
- -t 1.14364 -s 1 -d 0 -p ack -e 40 -c 0 -i 20 -a 0 -x {1.0 0.0 5 ------- null}
h -t 1.14364 -s 1 -d 0 -p ack -e 40 -c 0 -i 20 -a 0 -x {1.0 0.0 -1 ------- null}
r -t 1.148704 -s 1 -d 0 -p ack -e 40 -c 0 -i 20 -a 0 -x {1.0 0.0 5 ------- null}
+ -t 1.348704 -s 0 -d 1 -p tcp -e 10040 -c 0 -i 21 -a 0 -x {0.0 1.0 6 ---A--- null}
- -t 1.348704 -s 0 -d 1 -p tcp -e 10040 -c 0 -i 21 -a 0 -x {0.0 1.0 6 ---A--- null}
h -t 1.348704 -s 0 -d 1 -p tcp -e 10040 -c 0 -i 21 -a 0 -x {0.0 1.0 -1 ---A--- null}
r -t 1.369768 -s 0 -d 1 -p tcp -e 10040 -c 0 -i 21 -a 0 -x {0.0 1.0 6 ---A--- null}
+ -t 1.369768 -s 1 -d 0 -p ack -e 40 -c 0 -i 22 -a 0 -x {1.0 0.0 7 ------- null}
- -t 1.369768 -s 1 -d 0 -p ack -e 40 -c 0 -i 22 -a 0 -x {1.0 0.0 7 ------- null}
h -t 1.369768 -s 1 -d 0 -p ack -e 40 -c 0 -i 22 -a 0 -x {1.0 0.0 -1 ------- null}
r -t 1.374832 -s 1 -d 0 -p ack -e 40 -c 0 -i 22 -a 0 -x {1.0 0.0 7 ------- null}
+ -t 1.374832 -s 0 -d 1 -p tcp -e 10040 -c 0 -i 23 -a 0 -x {0.0 1.0 8 ------- null}
- -t 1.374832 -s 0 -d 1 -p tcp -e 10040 -c 0 -i 23 -a 0 -x {0.0 1.0 8 ------- null}
h -t 1.374832 -s 0 -d 1 -p tcp -e 10040 -c 0 -i 23 -a 0 -x {0.0 1.0 -1 ------- null}
+ -t 1.374832 -s 0 -d 1 -p tcp -e 10040 -c 0 -i 24 -a 0 -x {0.0 1.0 9 ------- null}
- -t 1.390896 -s 0 -d 1 -p tcp -e 10040 -c 0 -i 24 -a 0 -x {0.0 1.0 9 ------- null}
h -t 1.390896 -s 0 -d 1 -p tcp -e 10040 -c 0 -i 24 -a 0 -x {0.0 1.0 -1 ------- null}
r -t 1.395896 -s 0 -d 1 -p tcp -e 10040 -c 0 -i 23 -a 0 -x {0.0 1.0 8 ------- null}
+ -t 1.395896 -s 1 -d 0 -p ack -e 40 -c 0 -i 25 -a 0 -x {1.0 0.0 10 ------- null}
- -t 1.395896 -s 1 -d 0 -p ack -e 40 -c 0 -i 25 -a 0 -x {1.0 0.0 10 ------- null}
h -t 1.395896 -s 1 -d 0 -p ack -e 40 -c 0 -i 25 -a 0 -x {1.0 0.0 -1 ------- null}
r -t 1.40096 -s 1 -d 0 -p ack -e 40 -c 0 -i 25 -a 0 -x {1.0 0.0 10 ------- null}
+ -t 1.40096 -s 0 -d 1 -p tcp -e 10040 -c 0 -i 26 -a 0 -x {0.0 1.0 11 ------- null}
+ -t 1.40096 -s 0 -d 1 -p tcp -e 10040 -c 0 -i 27 -a 0 -x {0.0 1.0 12 ------- null}
d -t 1.40096 -s 0 -d 1 -p tcp -e 10040 -c 0 -i 27 -a 0 -x {0.0 1.0 12 ------- null}
- -t 1.40696 -s 0 -d 1 -p tcp -e 10040 -c 0 -i 26 -a 0 -x {0.0 1.0 11 ------- null}
h -t 1.40696 -s 0 -d 1 -p tcp -e 10040 -c 0 -i 26 -a 0 -x {0.0 1.0 -1 ------- null}
r -t 1.41196 -s 0 -d 1 -p tcp -e 10040 -c 0 -i 24 -a 0 -x {0.0 1.0 9 ------- null}
+ -t 1.41196 -s 1 -d 0 -p ack -e 40 -c 0 -i 28 -a 0 -x {1.0 0.0 10 ------- null}
- -t 1.41196 -s 1 -d 0 -p ack -e 40 -c 0 -i 28 -a 0 -x {1.0 0.0 10 ------- null}
h -t 1.41196 -s 1 -d 0 -p ack -e 40 -c 0 -i 28 -a 0 -x {1.0 0.0 -1 ------- null}
r -t 1.417024 -s 1 -d 0 -p ack -e 40 -c 0 -i 28 -a 0 -x {1.0 0.0 10 ------- null}
+ -t 1.417024 -s 0 -d 1 -p tcp -e 10040 -c 0 -i 29 -a 0 -x {0.0 1.0 13 ------- null}
- -t 1.423024 -s 0 -d 1 -p tcp -e 10040 -c 0 -i 29 -a 0 -x {0.0 1.0 13 ------- null}
h -t 1.423024 -s 0 -d 1 -p tcp -e 10040 -c 0 -i 29 -a 0 -x {0.0 1.0 -1 ------- null}
r -t 1.428024 -s 0 -d 1 -p tcp -e 10040 -c 0 -i 26 -a 0 -x {0.0 1.0 11 ------- null}
+ -t 1.428024 -s 1 -d 0 -p ack -e 40 -c 0 -i 30 -a 0 -x {1.0 0.0 11 ------- null}
- -t 1.428024 -s 1 -d 0 -p ack -e 40 -c 0 -i 30 -a 0 -x {1.0 0.0 11 ------- null}
h -t 1.428024 -s 1 -d 0 -p ack -e 40 -c 0 -i 30 -a 0 -x {1.0 0.0 -1 ------- null}
r -t 1.433088 -s 1 -d 0 -p ack -e 40 -c 0 -i 30 -a 0 -x {1.0 0.0 11 ------- null}
r -t 1.444088 -s 0 -d 1 -p tcp -e 10040 -c 0 -i 29 -a 0 -x {0.0 1.0 13 ------- null}
+ -t 1.444088 -s 1 -d 0 -p ack -e 40 -c 0 -i 31 -a 0 -x {1.0 0.0 11 ------- null}
- -t 1.444088 -s 1 -d 0 -p ack -e 40 -c 0 -i 31 -a 0 -x {1.0 0.0 11 ------- null}
h -t 1.444088 -s 1 -d 0 -p ack -e 40 -c 0 -i 31 -a 0 -x {1.0 0.0 -1 ------- null}
r -t 1.449152 -s 1 -d 0 -p ack -e 40 -c 0 -i 31 -a 0 -x {1.0 0.0 11 ------- null}
+ -t 1.449152 -s 0 -d 1 -p tcp -e 10040 -c 0 -i 32 -a 0 -x {0.0 1.0 14 ------- null}
- -t 1.449152 -s 0 -d 1 -p tcp -e 10040 -c 0 -i 32 -a 0 -x {0.0 1.0 14 ------- null}
h -t 1.449152 -s 0 -d 1 -p tcp -e 10040 -c 0 -i 32 -a 0 -x {0.0 1.0 -1 ------- null}
r -t 1.470216 -s 0 -d 1 -p tcp -e 10040 -c 0 -i 32 -a 0 -x {0.0 1.0 14 ------- null}
+ -t 1.470216 -s 1 -d 0 -p ack -e 40 -c 0 -i 33 -a 0 -x {1.0 0.0 11 ------- null}
- -t 1.470216 -s 1 -d 0 -p ack -e 40 -c 0 -i 33 -a 0 -x {1.0 0.0 11 ------- null}
h -t 1.470216 -s 1 -d 0 -p ack -e 40 -c 0 -i 33 -a 0 -x {1.0 0.0 -1 ------- null}
r -t 1.47528 -s 1 -d 0 -p ack -e 40 -c 0 -i 33 -a 0 -x {1.0 0.0 11 ------- null}
+ -t 1.47528 -s 0 -d 1 -p tcp -e 10040 -c 0 -i 34 -a 0 -x {0.0 1.0 15 ------- null}
- -t 1.47528 -s 0 -d 1 -p tcp -e 10040 -c 0 -i 34 -a 0 -x {0.0 1.0 15 ------- null}
h -t 1.47528 -s 0 -d 1 -p tcp -e 10040 -c 0 -i 34 -a 0 -x {0.0 1.0 -1 ------- null}
r -t 1.496344 -s 0 -d 1 -p tcp -e 10040 -c 0 -i 34 -a 0 -x {0.0 1.0 15 ------- null}
+ -t 1.496344 -s 1 -d 0 -p ack -e 40 -c 0 -i 35 -a 0 -x {1.0 0.0 11 ------- null}
- -t 1.496344 -s 1 -d 0 -p ack -e 40 -c 0 -i 35 -a 0 -x {1.0 0.0 11 ------- null}
h -t 1.496344 -s 1 -d 0 -p ack -e 40 -c 0 -i 35 -a 0 -x {1.0 0.0 -1 ------- null}
r -t 1.501408 -s 1 -d 0 -p ack -e 40 -c 0 -i 35 -a 0 -x {1.0 0.0 11 ------- null}
+ -t 1.501408 -s 0 -d 1 -p tcp -e 10040 -c 0 -i 36 -a 0 -x {0.0 1.0 12 ---A--- null}
- -t 1.501408 -s 0 -d 1 -p tcp -e 10040 -c 0 -i 36 -a 0 -x {0.0 1.0 12 ---A--- null}
h -t 1.501408 -s 0 -d 1 -p tcp -e 10040 -c 0 -i 36 -a 0 -x {0.0 1.0 -1 ---A--- null}
r -t 1.522472 -s 0 -d 1 -p tcp -e 10040 -c 0 -i 36 -a 0 -x {0.0 1.0 12 ---A--- null}
+ -t 1.522472 -s 1 -d 0 -p ack -e 40 -c 0 -i 37 -a 0 -x {1.0 0.0 15 ------- null}
- -t 1.522472 -s 1 -d 0 -p ack -e 40 -c 0 -i 37 -a 0 -x {1.0 0.0 15 ------- null}
h -t 1.522472 -s 1 -d 0 -p ack -e 40 -c 0 -i 37 -a 0 -x {1.0 0.0 -1 ------- null}
r -t 1.527536 -s 1 -d 0 -p ack -e 40 -c 0 -i 37 -a 0 -x {1.0 0.0 15 ------- null}
+ -t 1.527536 -s 0 -d 1 -p tcp -e 10040 -c 0 -i 38 -a 0 -x {0.0 1.0 16 ------- null}
- -t 1.527536 -s 0 -d 1 -p tcp -e 10040 -c 0 -i 38 -a 0 -x {0.0 1.0 16 ------- null}
h -t 1.527536 -s 0 -d 1 -p tcp -e 10040 -c 0 -i 38 -a 0 -x {0.0 1.0 -1 ------- null}
+ -t 1.527536 -s 0 -d 1 -p tcp -e 10040 -c 0 -i 39 -a 0 -x {0.0 1.0 17 ------- null}
- -t 1.5436 -s 0 -d 1 -p tcp -e 10040 -c 0 -i 39 -a 0 -x {0.0 1.0 17 ------- null}
h -t 1.5436 -s 0 -d 1 -p tcp -e 10040 -c 0 -i 39 -a 0 -x {0.0 1.0 -1 ------- null}
r -t 1.5486 -s 0 -d 1 -p tcp -e 10040 -c 0 -i 38 -a 0 -x {0.0 1.0 16 ------- null}
+ -t 1.5486 -s 1 -d 0 -p ack -e 40 -c 0 -i 40 -a 0 -x {1.0 0.0 16 ------- null}
- -t 1.5486 -s 1 -d 0 -p ack -e 40 -c 0 -i 40 -a 0 -x {1.0 0.0 16 ------- null}
h -t 1.5486 -s 1 -d 0 -p ack -e 40 -c 0 -i 40 -a 0 -x {1.0 0.0 -1 ------- null}
r -t 1.553664 -s 1 -d 0 -p ack -e 40 -c 0 -i 40 -a 0 -x {1.0 0.0 16 ------- null}
+ -t 1.553664 -s 0 -d 1 -p tcp -e 10040 -c 0 -i 41 -a 0 -x {0.0 1.0 18 ------- null}
- -t 1.559664 -s 0 -d 1 -p tcp -e 10040 -c 0 -i 41 -a 0 -x {0.0 1.0 18 ------- null}
h -t 1.559664 -s 0 -d 1 -p tcp -e 10040 -c 0 -i 41 -a 0 -x {0.0 1.0 -1 ------- null}
r -t 1.564664 -s 0 -d 1 -p tcp -e 10040 -c 0 -i 39 -a 0 -x {0.0 1.0 17 ------- null}
+ -t 1.564664 -s 1 -d 0 -p ack -e 40 -c 0 -i 42 -a 0 -x {1.0 0.0 17 ------- null}
- -t 1.564664 -s 1 -d 0 -p ack -e 40 -c 0 -i 42 -a 0 -x {1.0 0.0 17 ------- null}
h -t 1.564664 -s 1 -d 0 -p ack -e 40 -c 0 -i 42 -a 0 -x {1.0 0.0 -1 ------- null}
r -t 1.569728 -s 1 -d 0 -p ack -e 40 -c 0 -i 42 -a 0 -x {1.0 0.0 17 ------- null}
+ -t 1.569728 -s 0 -d 1 -p tcp -e 10040 -c 0 -i 43 -a 0 -x {0.0 1.0 19 ------- null}
+ -t 1.569728 -s 0 -d 1 -p tcp -e 10040 -c 0 -i 44 -a 0 -x {0.0 1.0 20 ------- null}
d -t 1.569728 -s 0 -d 1 -p tcp -e 10040 -c 0 -i 44 -a 0 -x {0.0 1.0 20 ------- null}
- -t 1.575728 -s 0 -d 1 -p tcp -e 10040 -c 0 -i 43 -a 0 -x {0.0 1.0 19 ------- null}
h -t 1.575728 -s 0 -d 1 -p tcp -e 10040 -c 0 -i 43 -a 0 -x {0.0 1.0 -1 ------- null}
r -t 1.580728 -s 0 -d 1 -p tcp -e 10040 -c 0 -i 41 -a 0 -x {0.0 1.0 18 ------- null}
+ -t 1.580728 -s 1 -d 0 -p ack -e 40 -c 0 -i 45 -a 0 -x {1.0 0.0 18 ------- null}
- -t 1.580728 -s 1 -d 0 -p ack -e 40 -c 0 -i 45 -a 0 -x {1.0 0.0 18 ------- null}
h -t 1.580728 -s 1 -d 0 -p ack -e 40 -c 0 -i 45 -a 0 -x {1.0 0.0 -1 ------- null}
r -t 1.585792 -s 1 -d 0 -p ack -e 40 -c 0 -i 45 -a 0 -x {1.0 0.0 18 ------- null}
+ -t 1.585792 -s 0 -d 1 -p tcp -e 10040 -c 0 -i 46 -a 0 -x {0.0 1.0 21 ------- null}
- -t 1.591792 -s 0 -d 1 -p tcp -e 10040 -c 0 -i 46 -a 0 -x {0.0 1.0 21 ------- null}
h -t 1.591792 -s 0 -d 1 -p tcp -e 10040 -c 0 -i 46 -a 0 -x {0.0 1.0 -1 ------- null}
r -t 1.596792 -s 0 -d 1 -p tcp -e 10040 -c 0 -i 43 -a 0 -x {0.0 1.0 19 ------- null}
+ -t 1.596792 -s 1 -d 0 -p ack -e 40 -c 0 -i 47 -a 0 -x {1.0 0.0 19 ------- null}
- -t 1.596792 -s 1 -d 0 -p ack -e 40 -c 0 -i 47 -a 0 -x {1.0 0.0 19 ------- null}
h -t 1.596792 -s 1 -d 0 -p ack -e 40 -c 0 -i 47 -a 0 -x {1.0 0.0 -1 ------- null}
r -t 1.601856 -s 1 -d 0 -p ack -e 40 -c 0 -i 47 -a 0 -x {1.0 0.0 19 ------- null}
+ -t 1.601856 -s 0 -d 1 -p tcp -e 10040 -c 0 -i 48 -a 0 -x {0.0 1.0 22 ------- null}
- -t 1.607856 -s 0 -d 1 -p tcp -e 10040 -c 0 -i 48 -a 0 -x {0.0 1.0 22 ------- null}
h -t 1.607856 -s 0 -d 1 -p tcp -e 10040 -c 0 -i 48 -a 0 -x {0.0 1.0 -1 ------- null}
r -t 1.612856 -s 0 -d 1 -p tcp -e 10040 -c 0 -i 46 -a 0 -x {0.0 1.0 21 ------- null}
+ -t 1.612856 -s 1 -d 0 -p ack -e 40 -c 0 -i 49 -a 0 -x {1.0 0.0 19 ------- null}
- -t 1.612856 -s 1 -d 0 -p ack -e 40 -c 0 -i 49 -a 0 -x {1.0 0.0 19 ------- null}
h -t 1.612856 -s 1 -d 0 -p ack -e 40 -c 0 -i 49 -a 0 -x {1.0 0.0 -1 ------- null}
r -t 1.61792 -s 1 -d 0 -p ack -e 40 -c 0 -i 49 -a 0 -x {1.0 0.0 19 ------- null}
+ -t 1.61792 -s 0 -d 1 -p tcp -e 10040 -c 0 -i 50 -a 0 -x {0.0 1.0 23 ------- null}
- -t 1.62392 -s 0 -d 1 -p tcp -e 10040 -c 0 -i 50 -a 0 -x {0.0 1.0 23 ------- null}
h -t 1.62392 -s 0 -d 1 -p tcp -e 10040 -c 0 -i 50 -a 0 -x {0.0 1.0 -1 ------- null}
r -t 1.62892 -s 0 -d 1 -p tcp -e 10040 -c 0 -i 48 -a 0 -x {0.0 1.0 22 ------- null}
+ -t 1.62892 -s 1 -d 0 -p ack -e 40 -c 0 -i 51 -a 0 -x {1.0 0.0 19 ------- null}
- -t 1.62892 -s 1 -d 0 -p ack -e 40 -c 0 -i 51 -a 0 -x {1.0 0.0 19 ------- null}
h -t 1.62892 -s 1 -d 0 -p ack -e 40 -c 0 -i 51 -a 0 -x {1.0 0.0 -1 ------- null}
r -t 1.633984 -s 1 -d 0 -p ack -e 40 -c 0 -i 51 -a 0 -x {1.0 0.0 19 ------- null}
+ -t 1.633984 -s 0 -d 1 -p tcp -e 10040 -c 0 -i 52 -a 0 -x {0.0 1.0 24 ------- null}
- -t 1.639984 -s 0 -d 1 -p tcp -e 10040 -c 0 -i 52 -a 0 -x {0.0 1.0 24 ------- null}
h -t 1.639984 -s 0 -d 1 -p tcp -e 10040 -c 0 -i 52 -a 0 -x {0.0 1.0 -1 ------- null}
r -t 1.644984 -s 0 -d 1 -p tcp -e 10040 -c 0 -i 50 -a 0 -x {0.0 1.0 23 ------- null}
+ -t 1.644984 -s 1 -d 0 -p ack -e 40 -c 0 -i 53 -a 0 -x {1.0 0.0 19 ------- null}
- -t 1.644984 -s 1 -d 0 -p ack -e 40 -c 0 -i 53 -a 0 -x {1.0 0.0 19 ------- null}
h -t 1.644984 -s 1 -d 0 -p ack -e 40 -c 0 -i 53 -a 0 -x {1.0 0.0 -1 ------- null}
r -t 1.650048 -s 1 -d 0 -p ack -e 40 -c 0 -i 53 -a 0 -x {1.0 0.0 19 ------- null}
+ -t 1.650048 -s 0 -d 1 -p tcp -e 10040 -c 0 -i 54 -a 0 -x {0.0 1.0 20 ---A--- null}
- -t 1.656048 -s 0 -d 1 -p tcp -e 10040 -c 0 -i 54 -a 0 -x {0.0 1.0 20 ---A--- null}
h -t 1.656048 -s 0 -d 1 -p tcp -e 10040 -c 0 -i 54 -a 0 -x {0.0 1.0 -1 ---A--- null}
r -t 1.661048 -s 0 -d 1 -p tcp -e 10040 -c 0 -i 52 -a 0 -x {0.0 1.0 24 ------- null}
+ -t 1.661048 -s 1 -d 0 -p ack -e 40 -c 0 -i 55 -a 0 -x {1.0 0.0 19 ------- null}
- -t 1.661048 -s 1 -d 0 -p ack -e 40 -c 0 -i 55 -a 0 -x {1.0 0.0 19 ------- null}
h -t 1.661048 -s 1 -d 0 -p ack -e 40 -c 0 -i 55 -a 0 -x {1.0 0.0 -1 ------- null}
r -t 1.666112 -s 1 -d 0 -p ack -e 40 -c 0 -i 55 -a 0 -x {1.0 0.0 19 ------- null}
r -t 1.677112 -s 0 -d 1 -p tcp -e 10040 -c 0 -i 54 -a 0 -x {0.0 1.0 20 ---A--- null}
+ -t 1.677112 -s 1 -d 0 -p ack -e 40 -c 0 -i 56 -a 0 -x {1.0 0.0 24 ------- null}
- -t 1.677112 -s 1 -d 0 -p ack -e 40 -c 0 -i 56 -a 0 -x {1.0 0.0 24 ------- null}
h -t 1.677112 -s 1 -d 0 -p ack -e 40 -c 0 -i 56 -a 0 -x {1.0 0.0 -1 ------- null}
r -t 1.682176 -s 1 -d 0 -p ack -e 40 -c 0 -i 56 -a 0 -x {1.0 0.0 24 ------- null}
+ -t 1.682176 -s 0 -d 1 -p tcp -e 10040 -c 0 -i 57 -a 0 -x {0.0 1.0 25 ------- null}
- -t 1.682176 -s 0 -d 1 -p tcp -e 10040 -c 0 -i 57 -a 0 -x {0.0 1.0 25 ------- null}
h -t 1.682176 -s 0 -d 1 -p tcp -e 10040 -c 0 -i 57 -a 0 -x {0.0 1.0 -1 ------- null}
+ -t 1.682176 -s 0 -d 1 -p tcp -e 10040 -c 0 -i 58 -a 0 -x {0.0 1.0 26 ------- null}
- -t 1.69824 -s 0 -d 1 -p tcp -e 10040 -c 0 -i 58 -a 0 -x {0.0 1.0 26 ------- null}
h -t 1.69824 -s 0 -d 1 -p tcp -e 10040 -c 0 -i 58 -a 0 -x {0.0 1.0 -1 ------- null}
r -t 1.70324 -s 0 -d 1 -p tcp -e 10040 -c 0 -i 57 -a 0 -x {0.0 1.0 25 ------- null}
+ -t 1.70324 -s 1 -d 0 -p ack -e 40 -c 0 -i 59 -a 0 -x {1.0 0.0 25 ------- null}
- -t 1.70324 -s 1 -d 0 -p ack -e 40 -c 0 -i 59 -a 0 -x {1.0 0.0 25 ------- null}
h -t 1.70324 -s 1 -d 0 -p ack -e 40 -c 0 -i 59 -a 0 -x {1.0 0.0 -1 ------- null}
r -t 1.708304 -s 1 -d 0 -p ack -e 40 -c 0 -i 59 -a 0 -x {1.0 0.0 25 ------- null}
+ -t 1.708304 -s 0 -d 1 -p tcp -e 10040 -c 0 -i 60 -a 0 -x {0.0 1.0 27 ------- null}
+ -t 1.708304 -s 0 -d 1 -p tcp -e 10040 -c 0 -i 61 -a 0 -x {0.0 1.0 28 ------- null}
d -t 1.708304 -s 0 -d 1 -p tcp -e 10040 -c 0 -i 61 -a 0 -x {0.0 1.0 28 ------- null}
- -t 1.714304 -s 0 -d 1 -p tcp -e 10040 -c 0 -i 60 -a 0 -x {0.0 1.0 27 ------- null}
h -t 1.714304 -s 0 -d 1 -p tcp -e 10040 -c 0 -i 60 -a 0 -x {0.0 1.0 -1 ------- null}
r -t 1.719304 -s 0 -d 1 -p tcp -e 10040 -c 0 -i 58 -a 0 -x {0.0 1.0 26 ------- null}
+ -t 1.719304 -s 1 -d 0 -p ack -e 40 -c 0 -i 62 -a 0 -x {1.0 0.0 26 ------- null}
- -t 1.719304 -s 1 -d 0 -p ack -e 40 -c 0 -i 62 -a 0 -x {1.0 0.0 26 ------- null}
h -t 1.719304 -s 1 -d 0 -p ack -e 40 -c 0 -i 62 -a 0 -x {1.0 0.0 -1 ------- null}
r -t 1.724368 -s 1 -d 0 -p ack -e 40 -c 0 -i 62 -a 0 -x {1.0 0.0 26 ------- null}
+ -t 1.724368 -s 0 -d 1 -p tcp -e 10040 -c 0 -i 63 -a 0 -x {0.0 1.0 29 ------- null}
- -t 1.730368 -s 0 -d 1 -p tcp -e 10040 -c 0 -i 63 -a 0 -x {0.0 1.0 29 ------- null}
h -t 1.730368 -s 0 -d 1 -p tcp -e 10040 -c 0 -i 63 -a 0 -x {0.0 1.0 -1 ------- null}
r -t 1.735368 -s 0 -d 1 -p tcp -e 10040 -c 0 -i 60 -a 0 -x {0.0 1.0 27 ------- null}
+ -t 1.735368 -s 1 -d 0 -p ack -e 40 -c 0 -i 64 -a 0 -x {1.0 0.0 27 ------- null}
- -t 1.735368 -s 1 -d 0 -p ack -e 40 -c 0 -i 64 -a 0 -x {1.0 0.0 27 ------- null}
h -t 1.735368 -s 1 -d 0 -p ack -e 40 -c 0 -i 64 -a 0 -x {1.0 0.0 -1 ------- null}
r -t 1.740432 -s 1 -d 0 -p ack -e 40 -c 0 -i 64 -a 0 -x {1.0 0.0 27 ------- null}
+ -t 1.740432 -s 0 -d 1 -p tcp -e 10040 -c 0 -i 65 -a 0 -x {0.0 1.0 30 ------- null}
- -t 1.746432 -s 0 -d 1 -p tcp -e 10040 -c 0 -i 65 -a 0 -x {0.0 1.0 30 ------- null}
h -t 1.746432 -s 0 -d 1 -p tcp -e 10040 -c 0 -i 65 -a 0 -x {0.0 1.0 -1 ------- null}
r -t 1.751432 -s 0 -d 1 -p tcp -e 10040 -c 0 -i 63 -a 0 -x {0.0 1.0 29 ------- null}
+ -t 1.751432 -s 1 -d 0 -p ack -e 40 -c 0 -i 66 -a 0 -x {1.0 0.0 27 ------- null}
- -t 1.751432 -s 1 -d 0 -p ack -e 40 -c 0 -i 66 -a 0 -x {1.0 0.0 27 ------- null}
h -t 1.751432 -s 1 -d 0 -p ack -e 40 -c 0 -i 66 -a 0 -x {1.0 0.0 -1 ------- null}
r -t 1.756496 -s 1 -d 0 -p ack -e 40 -c 0 -i 66 -a 0 -x {1.0 0.0 27 ------- null}
+ -t 1.756496 -s 0 -d 1 -p tcp -e 10040 -c 0 -i 67 -a 0 -x {0.0 1.0 31 ------- null}
- -t 1.762496 -s 0 -d 1 -p tcp -e 10040 -c 0 -i 67 -a 0 -x {0.0 1.0 31 ------- null}
h -t 1.762496 -s 0 -d 1 -p tcp -e 10040 -c 0 -i 67 -a 0 -x {0.0 1.0 -1 ------- null}
r -t 1.767496 -s 0 -d 1 -p tcp -e 10040 -c 0 -i 65 -a 0 -x {0.0 1.0 30 ------- null}
+ -t 1.767496 -s 1 -d 0 -p ack -e 40 -c 0 -i 68 -a 0 -x {1.0 0.0 27 ------- null}
- -t 1.767496 -s 1 -d 0 -p ack -e 40 -c 0 -i 68 -a 0 -x {1.0 0.0 27 ------- null}
h -t 1.767496 -s 1 -d 0 -p ack -e 40 -c 0 -i 68 -a 0 -x {1.0 0.0 -1 ------- null}
r -t 1.77256 -s 1 -d 0 -p ack -e 40 -c 0 -i 68 -a 0 -x {1.0 0.0 27 ------- null}
+ -t 1.77256 -s 0 -d 1 -p tcp -e 10040 -c 0 -i 69 -a 0 -x {0.0 1.0 32 ------- null}
- -t 1.77856 -s 0 -d 1 -p tcp -e 10040 -c 0 -i 69 -a 0 -x {0.0 1.0 32 ------- null}
h -t 1.77856 -s 0 -d 1 -p tcp -e 10040 -c 0 -i 69 -a 0 -x {0.0 1.0 -1 ------- null}
r -t 1.78356 -s 0 -d 1 -p tcp -e 10040 -c 0 -i 67 -a 0 -x {0.0 1.0 31 ------- null}
+ -t 1.78356 -s 1 -d 0 -p ack -e 40 -c 0 -i 70 -a 0 -x {1.0 0.0 27 ------- null}
- -t 1.78356 -s 1 -d 0 -p ack -e 40 -c 0 -i 70 -a 0 -x {1.0 0.0 27 ------- null}
h -t 1.78356 -s 1 -d 0 -p ack -e 40 -c 0 -i 70 -a 0 -x {1.0 0.0 -1 ------- null}
r -t 1.788624 -s 1 -d 0 -p ack -e 40 -c 0 -i 70 -a 0 -x {1.0 0.0 27 ------- null}
+ -t 1.788624 -s 0 -d 1 -p tcp -e 10040 -c 0 -i 71 -a 0 -x {0.0 1.0 28 ---A--- null}
- -t 1.794624 -s 0 -d 1 -p tcp -e 10040 -c 0 -i 71 -a 0 -x {0.0 1.0 28 ---A--- null}
h -t 1.794624 -s 0 -d 1 -p tcp -e 10040 -c 0 -i 71 -a 0 -x {0.0 1.0 -1 ---A--- null}
r -t 1.799624 -s 0 -d 1 -p tcp -e 10040 -c 0 -i 69 -a 0 -x {0.0 1.0 32 ------- null}
+ -t 1.799624 -s 1 -d 0 -p ack -e 40 -c 0 -i 72 -a 0 -x {1.0 0.0 27 ------- null}
- -t 1.799624 -s 1 -d 0 -p ack -e 40 -c 0 -i 72 -a 0 -x {1.0 0.0 27 ------- null}
h -t 1.799624 -s 1 -d 0 -p ack -e 40 -c 0 -i 72 -a 0 -x {1.0 0.0 -1 ------- null}
r -t 1.804688 -s 1 -d 0 -p ack -e 40 -c 0 -i 72 -a 0 -x {1.0 0.0 27 ------- null}
r -t 1.815688 -s 0 -d 1 -p tcp -e 10040 -c 0 -i 71 -a 0 -x {0.0 1.0 28 ---A--- null}
+ -t 1.815688 -s 1 -d 0 -p ack -e 40 -c 0 -i 73 -a 0 -x {1.0 0.0 32 ------- null}
- -t 1.815688 -s 1 -d 0 -p ack -e 40 -c 0 -i 73 -a 0 -x {1.0 0.0 32 ------- null}
h -t 1.815688 -s 1 -d 0 -p ack -e 40 -c 0 -i 73 -a 0 -x {1.0 0.0 -1 ------- null}
r -t 1.820752 -s 1 -d 0 -p ack -e 40 -c 0 -i 73 -a 0 -x {1.0 0.0 32 ------- null}
+ -t 1.820752 -s 0 -d 1 -p tcp -e 10040 -c 0 -i 74 -a 0 -x {0.0 1.0 33 ------- null}
- -t 1.820752 -s 0 -d 1 -p tcp -e 10040 -c 0 -i 74 -a 0 -x {0.0 1.0 33 ------- null}
h -t 1.820752 -s 0 -d 1 -p tcp -e 10040 -c 0 -i 74 -a 0 -x {0.0 1.0 -1 ------- null}
+ -t 1.820752 -s 0 -d 1 -p tcp -e 10040 -c 0 -i 75 -a 0 -x {0.0 1.0 34 ------- null}
- -t 1.836816 -s 0 -d 1 -p tcp -e 10040 -c 0 -i 75 -a 0 -x {0.0 1.0 34 ------- null}
h -t 1.836816 -s 0 -d 1 -p tcp -e 10040 -c 0 -i 75 -a 0 -x {0.0 1.0 -1 ------- null}
r -t 1.841816 -s 0 -d 1 -p tcp -e 10040 -c 0 -i 74 -a 0 -x {0.0 1.0 33 ------- null}
+ -t 1.841816 -s 1 -d 0 -p ack -e 40 -c 0 -i 76 -a 0 -x {1.0 0.0 33 ------- null}
- -t 1.841816 -s 1 -d 0 -p ack -e 40 -c 0 -i 76 -a 0 -x {1.0 0.0 33 ------- null}
h -t 1.841816 -s 1 -d 0 -p ack -e 40 -c 0 -i 76 -a 0 -x {1.0 0.0 -1 ------- null}
r -t 1.84688 -s 1 -d 0 -p ack -e 40 -c 0 -i 76 -a 0 -x {1.0 0.0 33 ------- null}
+ -t 1.84688 -s 0 -d 1 -p tcp -e 10040 -c 0 -i 77 -a 0 -x {0.0 1.0 35 ------- null}
+ -t 1.84688 -s 0 -d 1 -p tcp -e 10040 -c 0 -i 78 -a 0 -x {0.0 1.0 36 ------- null}
d -t 1.84688 -s 0 -d 1 -p tcp -e 10040 -c 0 -i 78 -a 0 -x {0.0 1.0 36 ------- null}
- -t 1.85288 -s 0 -d 1 -p tcp -e 10040 -c 0 -i 77 -a 0 -x {0.0 1.0 35 ------- null}
h -t 1.85288 -s 0 -d 1 -p tcp -e 10040 -c 0 -i 77 -a 0 -x {0.0 1.0 -1 ------- null}
r -t 1.85788 -s 0 -d 1 -p tcp -e 10040 -c 0 -i 75 -a 0 -x {0.0 1.0 34 ------- null}
+ -t 1.85788 -s 1 -d 0 -p ack -e 40 -c 0 -i 79 -a 0 -x {1.0 0.0 34 ------- null}
- -t 1.85788 -s 1 -d 0 -p ack -e 40 -c 0 -i 79 -a 0 -x {1.0 0.0 34 ------- null}
h -t 1.85788 -s 1 -d 0 -p ack -e 40 -c 0 -i 79 -a 0 -x {1.0 0.0 -1 ------- null}
r -t 1.862944 -s 1 -d 0 -p ack -e 40 -c 0 -i 79 -a 0 -x {1.0 0.0 34 ------- null}
+ -t 1.862944 -s 0 -d 1 -p tcp -e 10040 -c 0 -i 80 -a 0 -x {0.0 1.0 37 ------- null}
- -t 1.868944 -s 0 -d 1 -p tcp -e 10040 -c 0 -i 80 -a 0 -x {0.0 1.0 37 ------- null}
h -t 1.868944 -s 0 -d 1 -p tcp -e 10040 -c 0 -i 80 -a 0 -x {0.0 1.0 -1 ------- null}
r -t 1.873944 -s 0 -d 1 -p tcp -e 10040 -c 0 -i 77 -a 0 -x {0.0 1.0 35 ------- null}
+ -t 1.873944 -s 1 -d 0 -p ack -e 40 -c 0 -i 81 -a 0 -x {1.0 0.0 35 ------- null}
- -t 1.873944 -s 1 -d 0 -p ack -e 40 -c 0 -i 81 -a 0 -x {1.0 0.0 35 ------- null}
h -t 1.873944 -s 1 -d 0 -p ack -e 40 -c 0 -i 81 -a 0 -x {1.0 0.0 -1 ------- null}
r -t 1.879008 -s 1 -d 0 -p ack -e 40 -c 0 -i 81 -a 0 -x {1.0 0.0 35 ------- null}
+ -t 1.879008 -s 0 -d 1 -p tcp -e 10040 -c 0 -i 82 -a 0 -x {0.0 1.0 38 ------- null}
- -t 1.885008 -s 0 -d 1 -p tcp -e 10040 -c 0 -i 82 -a 0 -x {0.0 1.0 38 ------- null}
h -t 1.885008 -s 0 -d 1 -p tcp -e 10040 -c 0 -i 82 -a 0 -x {0.0 1.0 -1 ------- null}
r -t 1.890008 -s 0 -d 1 -p tcp -e 10040 -c 0 -i 80 -a 0 -x {0.0 1.0 37 ------- null}
+ -t 1.890008 -s 1 -d 0 -p ack -e 40 -c 0 -i 83 -a 0 -x {1.0 0.0 35 ------- null}
- -t 1.890008 -s 1 -d 0 -p ack -e 40 -c 0 -i 83 -a 0 -x {1.0 0.0 35 ------- null}
h -t 1.890008 -s 1 -d 0 -p ack -e 40 -c 0 -i 83 -a 0 -x {1.0 0.0 -1 ------- null}
r -t 1.895072 -s 1 -d 0 -p ack -e 40 -c 0 -i 83 -a 0 -x {1.0 0.0 35 ------- null}
+ -t 1.895072 -s 0 -d 1 -p tcp -e 10040 -c 0 -i 84 -a 0 -x {0.0 1.0 39 ------- null}
- -t 1.901072 -s 0 -d 1 -p tcp -e 10040 -c 0 -i 84 -a 0 -x {0.0 1.0 39 ------- null}
h -t 1.901072 -s 0 -d 1 -p tcp -e 10040 -c 0 -i 84 -a 0 -x {0.0 1.0 -1 ------- null}
r -t 1.906072 -s 0 -d 1 -p tcp -e 10040 -c 0 -i 82 -a 0 -x {0.0 1.0 38 ------- null}
+ -t 1.906072 -s 1 -d 0 -p ack -e 40 -c 0 -i 85 -a 0 -x {1.0 0.0 35 ------- null}
- -t 1.906072 -s 1 -d 0 -p ack -e 40 -c 0 -i 85 -a 0 -x {1.0 0.0 35 ------- null}
h -t 1.906072 -s 1 -d 0 -p ack -e 40 -c 0 -i 85 -a 0 -x {1.0 0.0 -1 ------- null}
r -t 1.911136 -s 1 -d 0 -p ack -e 40 -c 0 -i 85 -a 0 -x {1.0 0.0 35 ------- null}
+ -t 1.911136 -s 0 -d 1 -p tcp -e 10040 -c 0 -i 86 -a 0 -x {0.0 1.0 40 ------- null}
- -t 1.917136 -s 0 -d 1 -p tcp -e 10040 -c 0 -i 86 -a 0 -x {0.0 1.0 40 ------- null}
h -t 1.917136 -s 0 -d 1 -p tcp -e 10040 -c 0 -i 86 -a 0 -x {0.0 1.0 -1 ------- null}
r -t 1.922136 -s 0 -d 1 -p tcp -e 10040 -c 0 -i 84 -a 0 -x {0.0 1.0 39 ------- null}
+ -t 1.922136 -s 1 -d 0 -p ack -e 40 -c 0 -i 87 -a 0 -x {1.0 0.0 35 ------- null}
- -t 1.922136 -s 1 -d 0 -p ack -e 40 -c 0 -i 87 -a 0 -x {1.0 0.0 35 ------- null}
h -t 1.922136 -s 1 -d 0 -p ack -e 40 -c 0 -i 87 -a 0 -x {1.0 0.0 -1 ------- null}
r -t 1.9272 -s 1 -d 0 -p ack -e 40 -c 0 -i 87 -a 0 -x {1.0 0.0 35 ------- null}
+ -t 1.9272 -s 0 -d 1 -p tcp -e 10040 -c 0 -i 88 -a 0 -x {0.0 1.0 36 ---A--- null}
- -t 1.9332 -s 0 -d 1 -p tcp -e 10040 -c 0 -i 88 -a 0 -x {0.0 1.0 36 ---A--- null}
h -t 1.9332 -s 0 -d 1 -p tcp -e 10040 -c 0 -i 88 -a 0 -x {0.0 1.0 -1 ---A--- null}
r -t 1.9382 -s 0 -d 1 -p tcp -e 10040 -c 0 -i 86 -a 0 -x {0.0 1.0 40 ------- null}
+ -t 1.9382 -s 1 -d 0 -p ack -e 40 -c 0 -i 89 -a 0 -x {1.0 0.0 35 ------- null}
- -t 1.9382 -s 1 -d 0 -p ack -e 40 -c 0 -i 89 -a 0 -x {1.0 0.0 35 ------- null}
h -t 1.9382 -s 1 -d 0 -p ack -e 40 -c 0 -i 89 -a 0 -x {1.0 0.0 -1 ------- null}
r -t 1.943264 -s 1 -d 0 -p ack -e 40 -c 0 -i 89 -a 0 -x {1.0 0.0 35 ------- null}
r -t 1.954264 -s 0 -d 1 -p tcp -e 10040 -c 0 -i 88 -a 0 -x {0.0 1.0 36 ---A--- null}
+ -t 1.954264 -s 1 -d 0 -p ack -e 40 -c 0 -i 90 -a 0 -x {1.0 0.0 40 ------- null}
- -t 1.954264 -s 1 -d 0 -p ack -e 40 -c 0 -i 90 -a 0 -x {1.0 0.0 40 ------- null}
h -t 1.954264 -s 1 -d 0 -p ack -e 40 -c 0 -i 90 -a 0 -x {1.0 0.0 -1 ------- null}
r -t 1.959328 -s 1 -d 0 -p ack -e 40 -c 0 -i 90 -a 0 -x {1.0 0.0 40 ------- null}
+ -t 1.959328 -s 0 -d 1 -p tcp -e 10040 -c 0 -i 91 -a 0 -x {0.0 1.0 41 ------- null}
- -t 1.959328 -s 0 -d 1 -p tcp -e 10040 -c 0 -i 91 -a 0 -x {0.0 1.0 41 ------- null}
h -t 1.959328 -s 0 -d 1 -p tcp -e 10040 -c 0 -i 91 -a 0 -x {0.0 1.0 -1 ------- null}
+ -t 1.959328 -s 0 -d 1 -p tcp -e 10040 -c 0 -i 92 -a 0 -x {0.0 1.0 42 ------- null}
- -t 1.975392 -s 0 -d 1 -p tcp -e 10040 -c 0 -i 92 -a 0 -x {0.0 1.0 42 ------- null}