+ 1 0 1 tcp 40 ------- 0 0.0 1.0 0 0
- 1 0 1 tcp 40 ------- 0 0.0 1.0 0 0
r 1.005064 0 1 tcp 40 ------- 0 0.0 1.0 0 0
+ 1.005064 1 0 ack 40 ------- 0 1.0 0.0 0 1
- 1.005064 1 0 ack 40 ------- 0 1.0 0.0 0 1
r 1.010128 1 0 ack 40 ------- 0 1.0 0.0 0 1
+ 1.010128 0 1 tcp 10040 ------- 0 0.0 1.0 1 2
- 1.010128 0 1 tcp 10040 ------- 0 0.0 1.0 1 2
+ 1.010128 0 1 tcp 10040 ------- 0 0.0 1.0 2 3
- 1.026192 0 1 tcp 10040 ------- 0 0.0 1.0 2 3
r 1.031192 0 1 tcp 10040 ------- 0 0.0 1.0 1 2
+ 1.031192 1 0 ack 40 ------- 0 1.0 0.0 1 4
- 1.031192 1 0 ack 40 ------- 0 1.0 0.0 1 4
r 1.036256 1 0 ack 40 ------- 0 1.0 0.0 1 4
+ 1.036256 0 1 tcp 10040 ------- 0 0.0 1.0 3 5
+ 1.036256 0 1 tcp 10040 ------- 0 0.0 1.0 4 6
d 1.036256 0 1 tcp 10040 ------- 0 0.0 1.0 4 6
- 1.042256 0 1 tcp 10040 ------- 0 0.0 1.0 3 5
r 1.047256 0 1 tcp 10040 ------- 0 0.0 1.0 2 3
+ 1.047256 1 0 ack 40 ------- 0 1.0 0.0 2 7
- 1.047256 1 0 ack 40 ------- 0 1.0 0.0 2 7
r 1.05232 1 0 ack 40 ------- 0 1.0 0.0 2 7
+ 1.05232 0 1 tcp 10040 ------- 0 0.0 1.0 5 8
+ 1.05232 0 1 tcp 10040 ------- 0 0.0 1.0 6 9
d 1.05232 0 1 tcp 10040 ------- 0 0.0 1.0 6 9
- 1.05832 0 1 tcp 10040 ------- 0 0.0 1.0 5 8
r 1.06332 0 1 tcp 10040 ------- 0 0.0 1.0 3 5
+ 1.06332 1 0 ack 40 ------- 0 1.0 0.0 3 10
- 1.06332 1 0 ack 40 ------- 0 1.0 0.0 3 10
r 1.068384 1 0 ack 40 ------- 0 1.0 0.0 3 10
+ 1.068384 0 1 tcp 10040 ------- 0 0.0 1.0 7 11
+ 1.068384 0 1 tcp 10040 ------- 0 0.0 1.0 8 12
d 1.068384 0 1 tcp 10040 ------- 0 0.0 1.0 8 12
- 1.074384 0 1 tcp 10040 ------- 0 0.0 1.0 7 11
r 1.079384 0 1 tcp 10040 ------- 0 0.0 1.0 5 8
+ 1.079384 1 0 ack 40 ------- 0 1.0 0.0 3 13
- 1.079384 1 0 ack 40 ------- 0 1.0 0.0 3 13
r 1.084448 1 0 ack 40 ------- 0 1.0 0.0 3 13
+ 1.084448 0 1 tcp 10040 ------- 0 0.0 1.0 9 14
- 1.090448 0 1 tcp 10040 ------- 0 0.0 1.0 9 14
r 1.095448 0 1 tcp 10040 ------- 0 0.0 1.0 7 11
+ 1.095448 1 0 ack 40 ------- 0 1.0 0.0 3 15
- 1.095448 1 0 ack 40 ------- 0 1.0 0.0 3 15
r 1.100512 1 0 ack 40 ------- 0 1.0 0.0 3 15
+ 1.100512 0 1 tcp 10040 ------- 0 0.0 1.0 10 16
- 1.106512 0 1 tcp 10040 ------- 0 0.0 1.0 10 16
r 1.111512 0 1 tcp 10040 ------- 0 0.0 1.0 9 14
+ 1.111512 1 0 ack 40 ------- 0 1.0 0.0 3 17
- 1.111512 1 0 ack 40 ------- 0 1.0 0.0 3 17
r 1.116576 1 0 ack 40 ------- 0 1.0 0.0 3 17
+ 1.116576 0 1 tcp 10040 ---A--- 0 0.0 1.0 4 18
- 1.122576 0 1 tcp 10040 ---A--- 0 0.0 1.0 4 18
r 1.127576 0 1 tcp 10040 ------- 0 0.0 1.0 10 16
+ 1.127576 1 0 ack 40 ------- 0 1.0 0.0 3 19
- 1.127576 1 0 ack 40 ------- 0 1.0 0.0 3 19
r 1.13264 1 0 ack 40 ------- 0 1.0 0.0 3 19
r 1.14364 0 1 tcp 10040 ---A--- 0 0.0 1.0 4 18
+ 1.14364 1 0 ack 40 ------- 0 1.0 0.0 5 20
- 1.14364 1 0 ack 40 ------- 0 1.0 0.0 5 20
r 1.148704 1 0 ack 40 ------- 0 1.0 0.0 5 20
+ 1.348704 0 1 tcp 10040 ---A--- 0 0.0 1.0 6 21
- 1.348704 0 1 tcp 10040 ---A--- 0 0.0 1.0 6 21
r 1.369768 0 1 tcp 10040 ---A--- 0 0.0 1.0 6 21
+ 1.369768 1 0 ack 40 ------- 0 1.0 0.0 7 22
- 1.369768 1 0 ack 40 ------- 0 1.0 0.0 7 22
r 1.374832 1 0 ack 40 ------- 0 1.0 0.0 7 22
+ 1.374832 0 1 tcp 10040 ------- 0 0.0 1.0 8 23
- 1.374832 0 1 tcp 10040 ------- 0 0.0 1.0 8 23
+ 1.374832 0 1 tcp 10040 ------- 0 0.0 1.0 9 24
- 1.390896 0 1 tcp 10040 ------- 0 0.0 1.0 9 24
r 1.395896 0 1 tcp 10040 ------- 0 0.0 1.0 8 23
+ 1.395896 1 0 ack 40 ------- 0 1.0 0.0 10 25
- 1.395896 1 0 ack 40 ------- 0 1.0 0.0 10 25
r 1.40096 1 0 ack 40 ------- 0 1.0 0.0 10 25
+ 1.40096 0 1 tcp 10040 ------- 0 0.0 1.0 11 26
+ 1.40096 0 1 tcp 10040 ------- 0 0.0 1.0 12 27
d 1.40096 0 1 tcp 10040 ------- 0 0.0 1.0 12 27
- 1.40696 0 1 tcp 10040 ------- 0 0.0 1.0 11 26
r 1.41196 0 1 tcp 10040 ------- 0 0.0 1.0 9 24
+ 1.41196 1 0 ack 40 ------- 0 1.0 0.0 10 28
- 1.41196 1 0 ack 40 ------- 0 1.0 0.0 10 28
r 1.417024 1 0 ack 40 ------- 0 1.0 0.0 10 28
+ 1.417024 0 1 tcp 10040 ------- 0 0.0 1.0 13 29
- 1.423024 0 1 tcp 10040 ------- 0 0.0 1.0 13 29
r 1.428024 0 1 tcp 10040 ------- 0 0.0 1.0 11 26
+ 1.428024 1 0 ack 40 ------- 0 1.0 0.0 11 30
- 1.428024 1 0 ack 40 ------- 0 1.0 0.0 11 30
r 1.433088 1 0 ack 40 ------- 0 1.0 0.0 11 30
r 1.444088 0 1 tcp 10040 ------- 0 0.0 1.0 13 29
+ 1.444088 1 0 ack 40 ------- 0 1.0 0.0 11 31
- 1.444088 1 0 ack 40 ------- 0 1.0 0.0 11 31
r 1.449152 1 0 ack 40 ------- 0 1.0 0.0 11 31
+ 1.449152 0 1 tcp 10040 ------- 0 0.0 1.0 14 32
- 1.449152 0 1 tcp 10040 ------- 0 0.0 1.0 14 32
r 1.470216 0 1 tcp 10040 ------- 0 0.0 1.0 14 32
+ 1.470216 1 0 ack 40 ------- 0 1.0 0.0 11 33
- 1.470216 1 0 ack 40 ------- 0 1.0 0.0 11 33
r 1.47528 1 0 ack 40 ------- 0 1.0 0.0 11 33
+ 1.47528 0 1 tcp 10040 ------- 0 0.0 1.0 15 34
- 1.47528 0 1 tcp 10040 ------- 0 0.0 1.0 15 34
r 1.496344 0 1 tcp 10040 ------- 0 0.0 1.0 15 34
+ 1.496344 1 0 ack 40 ------- 0 1.0 0.0 11 35
- 1.496344 1 0 ack 40 ------- 0 1.0 0.0 11 35
r 1.501408 1 0 ack 40 ------- 0 1.0 0.0 11 35
+ 1.501408 0 1 tcp 10040 ---A--- 0 0.0 1.0 12 36
- 1.501408 0 1 tcp 10040 ---A--- 0 0.0 1.0 12 36
r 1.522472 0 1 tcp 10040 ---A--- 0 0.0 1.0 12 36
+ 1.522472 1 0 ack 40 ------- 0 1.0 0.0 15 37
- 1.522472 1 0 ack 40 ------- 0 1.0 0.0 15 37
r 1.527536 1 0 ack 40 ------- 0 1.0 0.0 15 37
+ 1.527536 0 1 tcp 10040 ------- 0 0.0 1.0 16 38
- 1.527536 0 1 tcp 10040 ------- 0 0.0 1.0 16 38
+ 1.527536 0 1 tcp 10040 ------- 0 0.0 1.0 17 39
- 1.5436 0 1 tcp 10040 ------- 0 0.0 1.0 17 39
r 1.5486 0 1 tcp 10040 ------- 0 0.0 1.0 16 38
+ 1.5486 1 0 ack 40 ------- 0 1.0 0.0 16 40
- 1.5486 1 0 ack 40 ------- 0 1.0 0.0 16 40
r 1.553664 1 0 ack 40 ------- 0 1.0 0.0 16 40
+ 1.553664 0 1 tcp 10040 ------- 0 0.0 1.0 18 41
- 1.559664 0 1 tcp 10040 ------- 0 0.0 1.0 18 41
r 1.564664 0 1 tcp 10040 ------- 0 0.0 1.0 17 39
+ 1.564664 1 0 ack 40 ------- 0 1.0 0.0 17 42
- 1.564664 1 0 ack 40 ------- 0 1.0 0.0 17 42
r 1.569728 1 0 ack 40 ------- 0 1.0 0.0 17 42
+ 1.569728 0 1 tcp 10040 ------- 0 0.0 1.0 19 43
+ 1.569728 0 1 tcp 10040 ------- 0 0.0 1.0 20 44
d 1.569728 0 1 tcp 10040 ------- 0 0.0 1.0 20 44
- 1.575728 0 1 tcp 10040 ------- 0 0.0 1.0 19 43
r 1.580728 0 1 tcp 10040 ------- 0 0.0 1.0 18 41
+ 1.580728 1 0 ack 40 ------- 0 1.0 0.0 18 45
- 1.580728 1 0 ack 40 ------- 0 1.0 0.0 18 45
r 1.585792 1 0 ack 40 ------- 0 1.0 0.0 18 45
+ 1.585792 0 1 tcp 10040 ------- 0 0.0 1.0 21 46
- 1.591792 0 1 tcp 10040 ------- 0 0.0 1.0 21 46
r 1.596792 0 1 tcp 10040 ------- 0 0.0 1.0 19 43
+ 1.596792 1 0 ack 40 ------- 0 1.0 0.0 19 47
- 1.596792 1 0 ack 40 ------- 0 1.0 0.0 19 47
r 1.601856 1 0 ack 40 ------- 0 1.0 0.0 19 47
+ 1.601856 0 1 tcp 10040 ------- 0 0.0 1.0 22 48
- 1.607856 0 1 tcp 10040 ------- 0 0.0 1.0 22 48
r 1.612856 0 1 tcp 10040 ------- 0 0.0 1.0 21 46
+ 1.612856 1 0 ack 40 ------- 0 1.0 0.0 19 49
- 1.612856 1 0 ack 40 ------- 0 1.0 0.0 19 49
r 1.61792 1 0 ack 40 ------- 0 1.0 0.0 19 49
+ 1.61792 0 1 tcp 10040 ------- 0 0.0 1.0 23 50
- 1.62392 0 1 tcp 10040 ------- 0 0.0 1.0 23 50
r 1.62892 0 1 tcp 10040 ------- 0 0.0 1.0 22 48
+ 1.62892 1 0 ack 40 ------- 0 1.0 0.0 19 51
- 1.62892 1 0 ack 40 ------- 0 1.0 0.0 19 51
r 1.633984 1 0 ack 40 ------- 0 1.0 0.0 19 51
+ 1.633984 0 1 tcp 10040 ------- 0 0.0 1.0 24 52
- 1.639984 0 1 tcp 10040 ------- 0 0.0 1.0 24 52
r 1.644984 0 1 tcp 10040 ------- 0 0.0 1.0 23 50
+ 1.644984 1 0 ack 40 ------- 0 1.0 0.0 19 53
- 1.644984 1 0 ack 40 ------- 0 1.0 0.0 19 53
r 1.650048 1 0 ack 40 ------- 0 1.0 0.0 19 53
+ 1.650048 0 1 tcp 10040 ---A--- 0 0.0 1.0 20 54
- 1.656048 0 1 tcp 10040 ---A--- 0 0.0 1.0 20 54
r 1.661048 0 1 tcp 10040 ------- 0 0.0 1.0 24 52
+ 1.661048 1 0 ack 40 ------- 0 1.0 0.0 19 55
- 1.661048 1 0 ack 40 ------- 0 1.0 0.0 19 55
r 1.666112 1 0 ack 40 ------- 0 1.0 0.0 19 55
r 1.677112 0 1 tcp 10040 ---A--- 0 0.0 1.0 20 54
+ 1.677112 1 0 ack 40 ------- 0 1.0 0.0 24 56
- 1.677112 1 0 ack 40 ------- 0 1.0 0.0 24 56
r 1.682176 1 0 ack 40 ------- 0 1.0 0.0 24 56
+ 1.682176 0 1 tcp 10040 ------- 0 0.0 1.0 25 57
- 1.682176 0 1 tcp 10040 ------- 0 0.0 1.0 25 57
+ 1.682176 0 1 tcp 10040 ------- 0 0.0 1.0 26 58
- 1.69824 0 1 tcp 10040 ------- 0 0.0 1.0 26 58
r 1.70324 0 1 tcp 10040 ------- 0 0.0 1.0 25 57
+ 1.70324 1 0 ack 40 ------- 0 1.0 0.0 25 59
- 1.70324 1 0 ack 40 ------- 0 1.0 0.0 25 59
r 1.708304 1 0 ack 40 ------- 0 1.0 0.0 25 59
+ 1.708304 0 1 tcp 10040 ------- 0 0.0 1.0 27 60
+ 1.708304 0 1 tcp 10040 ------- 0 0.0 1.0 28 61
d 1.708304 0 1 tcp 10040 ------- 0 0.0 1.0 28 61
- 1.714304 0 1 tcp 10040 ------- 0 0.0 1.0 27 60
r 1.719304 0 1 tcp 10040 ------- 0 0.0 1.0 26 58
+ 1.719304 1 0 ack 40 ------- 0 1.0 0.0 26 62
- 1.719304 1 0 ack 40 ------- 0 1.0 0.0 26 62
r 1.724368 1 0 ack 40 ------- 0 1.0 0.0 26 62
+ 1.724368 0 1 tcp 10040 ------- 0 0.0 1.0 29 63
- 1.730368 0 1 tcp 10040 ------- 0 0.0 1.0 29 63
r 1.735368 0 1 tcp 10040 ------- 0 0.0 1.0 27 60
+ 1.735368 1 0 ack 40 ------- 0 1.0 0.0 27 64
- 1.735368 1 0 ack 40 ------- 0 1.0 0.0 27 64
r 1.740432 1 0 ack 40 ------- 0 1.0 0.0 27 64
+ 1.740432 0 1 tcp 10040 ------- 0 0.0 1.0 30 65
- 1.746432 0 1 tcp 10040 ------- 0 0.0 1.0 30 65
r 1.751432 0 1 tcp 10040 ------- 0 0.0 1.0 29 63
+ 1.751432 1 0 ack 40 ------- 0 1.0 0.0 27 66
- 1.751432 1 0 ack 40 ------- 0 1.0 0.0 27 66
r 1.756496 1 0 ack 40 ------- 0 1.0 0.0 27 66
+ 1.756496 0 1 tcp 10040 ------- 0 0.0 1.0 31 67
- 1.762496 0 1 tcp 10040 ------- 0 0.0 1.0 31 67
r 1.767496 0 1 tcp 10040 ------- 0 0.0 1.0 30 65
+ 1.767496 1 0 ack 40 ------- 0 1.0 0.0 27 68
- 1.767496 1 0 ack 40 ------- 0 1.0 0.0 27 68
r 1.77256 1 0 ack 40 ------- 0 1.0 0.0 27 68
+ 1.77256 0 1 tcp 10040 ------- 0 0.0 1.0 32 69
- 1.77856 0 1 tcp 10040 ------- 0 0.0 1.0 32 69
r 1.78356 0 1 tcp 10040 ------- 0 0.0 1.0 31 67
+ 1.78356 1 0 ack 40 ------- 0 1.0 0.0 27 70
- 1.78356 1 0 ack 40 ------- 0 1.0 0.0 27 70
r 1.788624 1 0 ack 40 ------- 0 1.0 0.0 27 70
+ 1.788624 0 1 tcp 10040 ---A--- 0 0.0 1.0 28 71
- 1.794624 0 1 tcp 10040 ---A--- 0 0.0 1.0 28 71
r 1.799624 0 1 tcp 10040 ------- 0 0.0 1.0 32 69
+ 1.799624 1 0 ack 40 ------- 0 1.0 0.0 27 72
- 1.799624 1 0 ack 40 ------- 0 1.0 0.0 27 72
r 1.804688 1 0 ack 40 ------- 0 1.0 0.0 27 72
r 1.815688 0 1 tcp 10040 ---A--- 0 0.0 1.0 28 71
+ 1.815688 1 0 ack 40 ------- 0 1.0 0.0 32 73
- 1.815688 1 0 ack 40 ------- 0 1.0 0.0 32 73
r 1.820752 1 0 ack 40 ------- 0 1.0 0.0 32 73
+ 1.820752 0 1 tcp 10040 ------- 0 0.0 1.0 33 74
- 1.820752 0 1 tcp 10040 ------- 0 0.0 1.0 33 74
+ 1.820752 0 1 tcp 10040 ------- 0 0.0 1.0 34 75
- 1.836816 0 1 tcp 10040 ------- 0 0.0 1.0 34 75
r 1.841816 0 1 tcp 10040 ------- 0 0.0 1.0 33 74
+ 1.841816 1 0 ack 40 ------- 0 1.0 0.0 33 76
- 1.841816 1 0 ack 40 ------- 0 1.0 0.0 33 76
r 1.84688 1 0 ack 40 ------- 0 1.0 0.0 33 76
+ 1.84688 0 1 tcp 10040 ------- 0 0.0 1.0 35 77
+ 1.84688 0 1 tcp 10040 ------- 0 0.0 1.0 36 78
d 1.84688 0 1 tcp 10040 ------- 0 0.0 1.0 36 78
- 1.85288 0 1 tcp 10040 ------- 0 0.0 1.0 35 77
r 1.85788 0 1 tcp 10040 ------- 0 0.0 1.0 34 75
+ 1.85788 1 0 ack 40 ------- 0 1.0 0.0 34 79
- 1.85788 1 0 ack 40 ------- 0 1.0 0.0 34 79
r 1.862944 1 0 ack 40 ------- 0 1.0 0.0 34 79
+ 1.862944 0 1 tcp 10040 ------- 0 0.0 1.0 37 80
- 1.868944 0 1 tcp 10040 ------- 0 0.0 1.0 37 80
r 1.873944 0 1 tcp 10040 ------- 0 0.0 1.0 35 77
+ 1.873944 1 0 ack 40 ------- 0 1.0 0.0 35 81
- 1.873944 1 0 ack 40 ------- 0 1.0 0.0 35 81
r 1.879008 1 0 ack 40 ------- 0 1.0 0.0 35 81
+ 1.879008 0 1 tcp 10040 ------- 0 0.0 1.0 38 82
- 1.885008 0 1 tcp 10040 ------- 0 0.0 1.0 38 82
r 1.890008 0 1 tcp 10040 ------- 0 0.0 1.0 37 80
+ 1.890008 1 0 ack 40 ------- 0 1.0 0.0 35 83
- 1.890008 1 0 ack 40 ------- 0 1.0 0.0 35 83
r 1.895072 1 0 ack 40 ------- 0 1.0 0.0 35 83
+ 1.895072 0 1 tcp 10040 ------- 0 0.0 1.0 39 84
- 1.901072 0 1 tcp 10040 ------- 0 0.0 1.0 39 84
r 1.906072 0 1 tcp 10040 ------- 0 0.0 1.0 38 82
+ 1.906072 1 0 ack 40 ------- 0 1.0 0.0 35 85
- 1.906072 1 0 ack 40 ------- 0 1.0 0.0 35 85
r 1.911136 1 0 ack 40 ------- 0 1.0 0.0 35 85
+ 1.911136 0 1 tcp 10040 ------- 0 0.0 1.0 40 86
- 1.917136 0 1 tcp 10040 ------- 0 0.0 1.0 40 86
r 1.922136 0 1 tcp 10040 ------- 0 0.0 1.0 39 84
+ 1.922136 1 0 ack 40 ------- 0 1.0 0.0 35 87
- 1.922136 1 0 ack 40 ------- 0 1.0 0.0 35 87
r 1.9272 1 0 ack 40 ------- 0 1.0 0.0 35 87
+ 1.9272 0 1 tcp 10040 ---A--- 0 0.0 1.0 36 88
- 1.9332 0 1 tcp 10040 ---A--- 0 0.0 1.0 36 88
r 1.9382 0 1 tcp 10040 ------- 0 0.0 1.0 40 86
+ 1.9382 1 0 ack 40 ------- 0 1.0 0.0 35 89
- 1.9382 1 0 ack 40 ------- 0 1.0 0.0 35 89
r 1.943264 1 0 ack 40 ------- 0 1.0 0.0 35 89
r 1.954264 0 1 tcp 10040 ---A--- 0 0.0 1.0 36 88
+ 1.954264 1 0 ack 40 ------- 0 1.0 0.0 40 90
- 1.954264 1 0 ack 40 ------- 0 1.0 0.0 40 90
r 1.959328 1 0 ack 40 ------- 0 1.0 0.0 40 90
+ 1.959328 0 1 tcp 10040 ------- 0 0.0 1.0 41 91
- 1.959328 0 1 tcp 10040 ------- 0 0.0 1.0 41 91
+ 1.959328 0 1 tcp 10040 ------- 0 0.0 1.0 42 92
- 1.975392 0 1 tcp 10040 ------- 0 0.0 1.0 42 92
r 1.980392 0 1 tcp 10040 ------- 0 0.0 1.0 41 91
+ 1.980392 1 0 ack 40 ------- 0 1.0 0.0 41 93
- 1.980392 1 0 ack 40 ------- 0 1.0 0.0 41 93
r 1.985456 1 0 ack 40 ------- 0 1.0 0.0 41 93
+ 1.985456 0 1 tcp 10040 ------- 0 0.0 1.0 43 94
+ 1.985456 0 1 tcp 10040 ------- 0 0.0 1.0 44 95
d 1.985456 0 1 tcp 10040 ------- 0 0.0 1.0 44 95
- 1.991456 0 1 tcp 10040 ------- 0 0.0 1.0 43 94
r 1.996456 0 1 tcp 10040 ------- 0 0.0 1.0 42 92
+ 1.996456 1 0 ack 40 ------- 0 1.0 0.0 42 96
- 1.996456 1 0 ack 40 ------- 0 1.0 0.0 42 96
+ 2 2 1 tcp 40 ------- 0 2.0 1.1 0 97
- 2 2 1 tcp 40 ------- 0 2.0 1.1 0 97
r 2.00152 1 0 ack 40 ------- 0 1.0 0.0 42 96
+ 2.00152 0 1 tcp 10040 ------- 0 0.0 1.0 45 98
r 2.005064 2 1 tcp 40 ------- 0 2.0 1.1 0 97
+ 2.005064 1 2 ack 40 ------- 0 1.1 2.0 0 99
- 2.005064 1 2 ack 40 ------- 0 1.1 2.0 0 99
- 2.00752 0 1 tcp 10040 ------- 0 0.0 1.0 45 98
r 2.010128 1 2 ack 40 ------- 0 1.1 2.0 0 99
+ 2.010128 2 1 tcp 10040 ------- 0 2.0 1.1 1 100
- 2.010128 2 1 tcp 10040 ------- 0 2.0 1.1 1 100
+ 2.010128 2 1 tcp 10040 ------- 0 2.0 1.1 2 101
r 2.01252 0 1 tcp 10040 ------- 0 0.0 1.0 43 94
+ 2.01252 1 0 ack 40 ------- 0 1.0 0.0 43 102
- 2.01252 1 0 ack 40 ------- 0 1.0 0.0 43 102
r 2.017584 1 0 ack 40 ------- 0 1.0 0.0 43 102
+ 2.017584 0 1 tcp 10040 ------- 0 0.0 1.0 46 103
- 2.023584 0 1 tcp 10040 ------- 0 0.0 1.0 46 103
- 2.026192 2 1 tcp 10040 ------- 0 2.0 1.1 2 101
r 2.028584 0 1 tcp 10040 ------- 0 0.0 1.0 45 98
+ 2.028584 1 0 ack 40 ------- 0 1.0 0.0 43 104
- 2.028584 1 0 ack 40 ------- 0 1.0 0.0 43 104
r 2.031192 2 1 tcp 10040 ------- 0 2.0 1.1 1 100
+ 2.031192 1 2 ack 40 ------- 0 1.1 2.0 1 105
- 2.031192 1 2 ack 40 ------- 0 1.1 2.0 1 105
r 2.033648 1 0 ack 40 ------- 0 1.0 0.0 43 104
+ 2.033648 0 1 tcp 10040 ------- 0 0.0 1.0 47 106
r 2.036256 1 2 ack 40 ------- 0 1.1 2.0 1 105
+ 2.036256 2 1 tcp 10040 ------- 0 2.0 1.1 3 107
+ 2.036256 2 1 tcp 10040 ------- 0 2.0 1.1 4 108
d 2.036256 2 1 tcp 10040 ------- 0 2.0 1.1 4 108
- 2.039648 0 1 tcp 10040 ------- 0 0.0 1.0 47 106
- 2.042256 2 1 tcp 10040 ------- 0 2.0 1.1 3 107
r 2.044648 0 1 tcp 10040 ------- 0 0.0 1.0 46 103
+ 2.044648 1 0 ack 40 ------- 0 1.0 0.0 43 109
- 2.044648 1 0 ack 40 ------- 0 1.0 0.0 43 109
r 2.047256 2 1 tcp 10040 ------- 0 2.0 1.1 2 101
+ 2.047256 1 2 ack 40 ------- 0 1.1 2.0 2 110
- 2.047256 1 2 ack 40 ------- 0 1.1 2.0 2 110
r 2.049712 1 0 ack 40 ------- 0 1.0 0.0 43 109
+ 2.049712 0 1 tcp 10040 ------- 0 0.0 1.0 48 111
r 2.05232 1 2 ack 40 ------- 0 1.1 2.0 2 110
+ 2.05232 2 1 tcp 10040 ------- 0 2.0 1.1 5 112
+ 2.05232 2 1 tcp 10040 ------- 0 2.0 1.1 6 113
d 2.05232 2 1 tcp 10040 ------- 0 2.0 1.1 6 113
- 2.055712 0 1 tcp 10040 ------- 0 0.0 1.0 48 111
- 2.05832 2 1 tcp 10040 ------- 0 2.0 1.1 5 112
r 2.060712 0 1 tcp 10040 ------- 0 0.0 1.0 47 106
+ 2.060712 1 0 ack 40 ------- 0 1.0 0.0 43 114
- 2.060712 1 0 ack 40 ------- 0 1.0 0.0 43 114
r 2.06332 2 1 tcp 10040 ------- 0 2.0 1.1 3 107
+ 2.06332 1 2 ack 40 ------- 0 1.1 2.0 3 115
- 2.06332 1 2 ack 40 ------- 0 1.1 2.0 3 115
r 2.065776 1 0 ack 40 ------- 0 1.0 0.0 43 114
+ 2.065776 0 1 tcp 10040 ---A--- 0 0.0 1.0 44 116
r 2.068384 1 2 ack 40 ------- 0 1.1 2.0 3 115
+ 2.068384 2 1 tcp 10040 ------- 0 2.0 1.1 7 117
+ 2.068384 2 1 tcp 10040 ------- 0 2.0 1.1 8 118
d 2.068384 2 1 tcp 10040 ------- 0 2.0 1.1 8 118
- 2.071776 0 1 tcp 10040 ---A--- 0 0.0 1.0 44 116
- 2.074384 2 1 tcp 10040 ------- 0 2.0 1.1 7 117
r 2.076776 0 1 tcp 10040 ------- 0 0.0 1.0 48 111
+ 2.076776 1 0 ack 40 ------- 0 1.0 0.0 43 119
- 2.076776 1 0 ack 40 ------- 0 1.0 0.0 43 119
r 2.079384 2 1 tcp 10040 ------- 0 2.0 1.1 5 112
+ 2.079384 1 2 ack 40 ------- 0 1.1 2.0 3 120
- 2.079384 1 2 ack 40 ------- 0 1.1 2.0 3 120
r 2.08184 1 0 ack 40 ------- 0 1.0 0.0 43 119
r 2.084448 1 2 ack 40 ------- 0 1.1 2.0 3 120
+ 2.084448 2 1 tcp 10040 ------- 0 2.0 1.1 9 121
- 2.090448 2 1 tcp 10040 ------- 0 2.0 1.1 9 121
r 2.09284 0 1 tcp 10040 ---A--- 0 0.0 1.0 44 116
+ 2.09284 1 0 ack 40 ------- 0 1.0 0.0 48 122
- 2.09284 1 0 ack 40 ------- 0 1.0 0.0 48 122
r 2.095448 2 1 tcp 10040 ------- 0 2.0 1.1 7 117
+ 2.095448 1 2 ack 40 ------- 0 1.1 2.0 3 123
- 2.095448 1 2 ack 40 ------- 0 1.1 2.0 3 123
r 2.097904 1 0 ack 40 ------- 0 1.0 0.0 48 122
+ 2.097904 0 1 tcp 10040 ------- 0 0.0 1.0 49 124
- 2.097904 0 1 tcp 10040 ------- 0 0.0 1.0 49 124
+ 2.097904 0 1 tcp 10040 ------- 0 0.0 1.0 50 125
r 2.100512 1 2 ack 40 ------- 0 1.1 2.0 3 123
+ 2.100512 2 1 tcp 10040 ------- 0 2.0 1.1 10 126
- 2.106512 2 1 tcp 10040 ------- 0 2.0 1.1 10 126
r 2.111512 2 1 tcp 10040 ------- 0 2.0 1.1 9 121
+ 2.111512 1 2 ack 40 ------- 0 1.1 2.0 3 127
- 2.111512 1 2 ack 40 ------- 0 1.1 2.0 3 127
- 2.113968 0 1 tcp 10040 ------- 0 0.0 1.0 50 125
r 2.116576 1 2 ack 40 ------- 0 1.1 2.0 3 127
+ 2.116576 2 1 tcp 10040 ---A--- 0 2.0 1.1 4 128
r 2.118968 0 1 tcp 10040 ------- 0 0.0 1.0 49 124
+ 2.118968 1 0 ack 40 ------- 0 1.0 0.0 49 129
- 2.118968 1 0 ack 40 ------- 0 1.0 0.0 49 129
- 2.122576 2 1 tcp 10040 ---A--- 0 2.0 1.1 4 128
r 2.124032 1 0 ack 40 ------- 0 1.0 0.0 49 129
+ 2.124032 0 1 tcp 10040 ------- 0 0.0 1.0 51 130
+ 2.124032 0 1 tcp 10040 ------- 0 0.0 1.0 52 131
d 2.124032 0 1 tcp 10040 ------- 0 0.0 1.0 52 131
r 2.127576 2 1 tcp 10040 ------- 0 2.0 1.1 10 126
+ 2.127576 1 2 ack 40 ------- 0 1.1 2.0 3 132
- 2.127576 1 2 ack 40 ------- 0 1.1 2.0 3 132
- 2.130032 0 1 tcp 10040 ------- 0 0.0 1.0 51 130
r 2.13264 1 2 ack 40 ------- 0 1.1 2.0 3 132
r 2.135032 0 1 tcp 10040 ------- 0 0.0 1.0 50 125
+ 2.135032 1 0 ack 40 ------- 0 1.0 0.0 50 133
- 2.135032 1 0 ack 40 ------- 0 1.0 0.0 50 133
r 2.140096 1 0 ack 40 ------- 0 1.0 0.0 50 133
+ 2.140096 0 1 tcp 10040 ------- 0 0.0 1.0 53 134
r 2.14364 2 1 tcp 10040 ---A--- 0 2.0 1.1 4 128
+ 2.14364 1 2 ack 40 ------- 0 1.1 2.0 5 135
- 2.14364 1 2 ack 40 ------- 0 1.1 2.0 5 135
- 2.146096 0 1 tcp 10040 ------- 0 0.0 1.0 53 134
r 2.148704 1 2 ack 40 ------- 0 1.1 2.0 5 135
r 2.151096 0 1 tcp 10040 ------- 0 0.0 1.0 51 130
+ 2.151096 1 0 ack 40 ------- 0 1.0 0.0 51 136
- 2.151096 1 0 ack 40 ------- 0 1.0 0.0 51 136
r 2.15616 1 0 ack 40 ------- 0 1.0 0.0 51 136
+ 2.15616 0 1 tcp 10040 ------- 0 0.0 1.0 54 137
- 2.16216 0 1 tcp 10040 ------- 0 0.0 1.0 54 137
r 2.16716 0 1 tcp 10040 ------- 0 0.0 1.0 53 134
+ 2.16716 1 0 ack 40 ------- 0 1.0 0.0 51 138
- 2.16716 1 0 ack 40 ------- 0 1.0 0.0 51 138
r 2.172224 1 0 ack 40 ------- 0 1.0 0.0 51 138
+ 2.172224 0 1 tcp 10040 ------- 0 0.0 1.0 55 139
- 2.178224 0 1 tcp 10040 ------- 0 0.0 1.0 55 139
r 2.183224 0 1 tcp 10040 ------- 0 0.0 1.0 54 137
+ 2.183224 1 0 ack 40 ------- 0 1.0 0.0 51 140
- 2.183224 1 0 ack 40 ------- 0 1.0 0.0 51 140
r 2.188288 1 0 ack 40 ------- 0 1.0 0.0 51 140
+ 2.188288 0 1 tcp 10040 ------- 0 0.0 1.0 56 141
- 2.194288 0 1 tcp 10040 ------- 0 0.0 1.0 56 141
r 2.199288 0 1 tcp 10040 ------- 0 0.0 1.0 55 139
+ 2.199288 1 0 ack 40 ------- 0 1.0 0.0 51 142
- 2.199288 1 0 ack 40 ------- 0 1.0 0.0 51 142
r 2.204352 1 0 ack 40 ------- 0 1.0 0.0 51 142
+ 2.204352 0 1 tcp 10040 ---A--- 0 0.0 1.0 52 143
- 2.210352 0 1 tcp 10040 ---A--- 0 0.0 1.0 52 143
r 2.215352 0 1 tcp 10040 ------- 0 0.0 1.0 56 141
+ 2.215352 1 0 ack 40 ------- 0 1.0 0.0 51 144
- 2.215352 1 0 ack 40 ------- 0 1.0 0.0 51 144
r 2.220416 1 0 ack 40 ------- 0 1.0 0.0 51 144
r 2.231416 0 1 tcp 10040 ---A--- 0 0.0 1.0 52 143
+ 2.231416 1 0 ack 40 ------- 0 1.0 0.0 56 145
- 2.231416 1 0 ack 40 ------- 0 1.0 0.0 56 145
r 2.23648 1 0 ack 40 ------- 0 1.0 0.0 56 145
+ 2.23648 0 1 tcp 10040 ------- 0 0.0 1.0 57 146
- 2.23648 0 1 tcp 10040 ------- 0 0.0 1.0 57 146
+ 2.23648 0 1 tcp 10040 ------- 0 0.0 1.0 58 147
- 2.252544 0 1 tcp 10040 ------- 0 0.0 1.0 58 147
r 2.257544 0 1 tcp 10040 ------- 0 0.0 1.0 57 146
+ 2.257544 1 0 ack 40 ------- 0 1.0 0.0 57 148
- 2.257544 1 0 ack 40 ------- 0 1.0 0.0 57 148
r 2.262608 1 0 ack 40 ------- 0 1.0 0.0 57 148
+ 2.262608 0 1 tcp 10040 ------- 0 0.0 1.0 59 149
+ 2.262608 0 1 tcp 10040 ------- 0 0.0 1.0 60 150
d 2.262608 0 1 tcp 10040 ------- 0 0.0 1.0 60 150
- 2.268608 0 1 tcp 10040 ------- 0 0.0 1.0 59 149
r 2.273608 0 1 tcp 10040 ------- 0 0.0 1.0 58 147
+ 2.273608 1 0 ack 40 ------- 0 1.0 0.0 58 151
- 2.273608 1 0 ack 40 ------- 0 1.0 0.0 58 151
r 2.278672 1 0 ack 40 ------- 0 1.0 0.0 58 151
+ 2.278672 0 1 tcp 10040 ------- 0 0.0 1.0 61 152
- 2.284672 0 1 tcp 10040 ------- 0 0.0 1.0 61 152
r 2.289672 0 1 tcp 10040 ------- 0 0.0 1.0 59 149
+ 2.289672 1 0 ack 40 ------- 0 1.0 0.0 59 153
- 2.289672 1 0 ack 40 ------- 0 1.0 0.0 59 153
r 2.294736 1 0 ack 40 ------- 0 1.0 0.0 59 153
+ 2.294736 0 1 tcp 10040 ------- 0 0.0 1.0 62 154
- 2.300736 0 1 tcp 10040 ------- 0 0.0 1.0 62 154
r 2.305736 0 1 tcp 10040 ------- 0 0.0 1.0 61 152
+ 2.305736 1 0 ack 40 ------- 0 1.0 0.0 59 155
- 2.305736 1 0 ack 40 ------- 0 1.0 0.0 59 155
r 2.3108 1 0 ack 40 ------- 0 1.0 0.0 59 155
+ 2.3108 0 1 tcp 10040 ------- 0 0.0 1.0 63 156
- 2.3168 0 1 tcp 10040 ------- 0 0.0 1.0 63 156
r 2.3218 0 1 tcp 10040 ------- 0 0.0 1.0 62 154
+ 2.3218 1 0 ack 40 ------- 0 1.0 0.0 59 157
- 2.3218 1 0 ack 40 ------- 0 1.0 0.0 59 157
r 2.326864 1 0 ack 40 ------- 0 1.0 0.0 59 157
+ 2.326864 0 1 tcp 10040 ------- 0 0.0 1.0 64 158
- 2.332864 0 1 tcp 10040 ------- 0 0.0 1.0 64 158
r 2.337864 0 1 tcp 10040 ------- 0 0.0 1.0 63 156
+ 2.337864 1 0 ack 40 ------- 0 1.0 0.0 59 159
- 2.337864 1 0 ack 40 ------- 0 1.0 0.0 59 159
r 2.342928 1 0 ack 40 ------- 0 1.0 0.0 59 159
+ 2.342928 0 1 tcp 10040 ---A--- 0 0.0 1.0 60 160
+ 2.348704 2 1 tcp 10040 ---A--- 0 2.0 1.1 6 161
- 2.348704 2 1 tcp 10040 ---A--- 0 2.0 1.1 6 161
- 2.348928 0 1 tcp 10040 ---A--- 0 0.0 1.0 60 160
r 2.353928 0 1 tcp 10040 ------- 0 0.0 1.0 64 158
+ 2.353928 1 0 ack 40 ------- 0 1.0 0.0 59 162
- 2.353928 1 0 ack 40 ------- 0 1.0 0.0 59 162
r 2.358992 1 0 ack 40 ------- 0 1.0 0.0 59 162
r 2.369768 2 1 tcp 10040 ---A--- 0 2.0 1.1 6 161
+ 2.369768 1 2 ack 40 ------- 0 1.1 2.0 7 163
- 2.369768 1 2 ack 40 ------- 0 1.1 2.0 7 163
r 2.369992 0 1 tcp 10040 ---A--- 0 0.0 1.0 60 160
+ 2.369992 1 0 ack 40 ------- 0 1.0 0.0 64 164
- 2.369992 1 0 ack 40 ------- 0 1.0 0.0 64 164
r 2.374832 1 2 ack 40 ------- 0 1.1 2.0 7 163
+ 2.374832 2 1 tcp 10040 ------- 0 2.0 1.1 8 165
- 2.374832 2 1 tcp 10040 ------- 0 2.0 1.1 8 165
+ 2.374832 2 1 tcp 10040 ------- 0 2.0 1.1 9 166
r 2.375056 1 0 ack 40 ------- 0 1.0 0.0 64 164
+ 2.375056 0 1 tcp 10040 ------- 0 0.0 1.0 65 167
- 2.375056 0 1 tcp 10040 ------- 0 0.0 1.0 65 167
+ 2.375056 0 1 tcp 10040 ------- 0 0.0 1.0 66 168
- 2.390896 2 1 tcp 10040 ------- 0 2.0 1.1 9 166
- 2.39112 0 1 tcp 10040 ------- 0 0.0 1.0 66 168
r 2.395896 2 1 tcp 10040 ------- 0 2.0 1.1 8 165
+ 2.395896 1 2 ack 40 ------- 0 1.1 2.0 10 169
- 2.395896 1 2 ack 40 ------- 0 1.1 2.0 10 169
r 2.39612 0 1 tcp 10040 ------- 0 0.0 1.0 65 167
+ 2.39612 1 0 ack 40 ------- 0 1.0 0.0 65 170
- 2.39612 1 0 ack 40 ------- 0 1.0 0.0 65 170
r 2.40096 1 2 ack 40 ------- 0 1.1 2.0 10 169
+ 2.40096 2 1 tcp 10040 ------- 0 2.0 1.1 11 171
+ 2.40096 2 1 tcp 10040 ------- 0 2.0 1.1 12 172
d 2.40096 2 1 tcp 10040 ------- 0 2.0 1.1 12 172
r 2.401184 1 0 ack 40 ------- 0 1.0 0.0 65 170
+ 2.401184 0 1 tcp 10040 ------- 0 0.0 1.0 67 173
+ 2.401184 0 1 tcp 10040 ------- 0 0.0 1.0 68 174
d 2.401184 0 1 tcp 10040 ------- 0 0.0 1.0 68 174
- 2.40696 2 1 tcp 10040 ------- 0 2.0 1.1 11 171
- 2.407184 0 1 tcp 10040 ------- 0 0.0 1.0 67 173
r 2.41196 2 1 tcp 10040 ------- 0 2.0 1.1 9 166
+ 2.41196 1 2 ack 40 ------- 0 1.1 2.0 10 175
- 2.41196 1 2 ack 40 ------- 0 1.1 2.0 10 175
r 2.412184 0 1 tcp 10040 ------- 0 0.0 1.0 66 168
+ 2.412184 1 0 ack 40 ------- 0 1.0 0.0 66 176
- 2.412184 1 0 ack 40 ------- 0 1.0 0.0 66 176
r 2.417024 1 2 ack 40 ------- 0 1.1 2.0 10 175
+ 2.417024 2 1 tcp 10040 ------- 0 2.0 1.1 13 177
r 2.417248 1 0 ack 40 ------- 0 1.0 0.0 66 176
+ 2.417248 0 1 tcp 10040 ------- 0 0.0 1.0 69 178
- 2.423024 2 1 tcp 10040 ------- 0 2.0 1.1 13 177
- 2.423248 0 1 tcp 10040 ------- 0 0.0 1.0 69 178
r 2.428024 2 1 tcp 10040 ------- 0 2.0 1.1 11 171
+ 2.428024 1 2 ack 40 ------- 0 1.1 2.0 11 179
- 2.428024 1 2 ack 40 ------- 0 1.1 2.0 11 179
r 2.428248 0 1 tcp 10040 ------- 0 0.0 1.0 67 173
+ 2.428248 1 0 ack 40 ------- 0 1.0 0.0 67 180
- 2.428248 1 0 ack 40 ------- 0 1.0 0.0 67 180
r 2.433088 1 2 ack 40 ------- 0 1.1 2.0 11 179
r 2.433312 1 0 ack 40 ------- 0 1.0 0.0 67 180
+ 2.433312 0 1 tcp 10040 ------- 0 0.0 1.0 70 181
- 2.439312 0 1 tcp 10040 ------- 0 0.0 1.0 70 181
r 2.444088 2 1 tcp 10040 ------- 0 2.0 1.1 13 177
+ 2.444088 1 2 ack 40 ------- 0 1.1 2.0 11 182
- 2.444088 1 2 ack 40 ------- 0 1.1 2.0 11 182
r 2.444312 0 1 tcp 10040 ------- 0 0.0 1.0 69 178
+ 2.444312 1 0 ack 40 ------- 0 1.0 0.0 67 183
- 2.444312 1 0 ack 40 ------- 0 1.0 0.0 67 183
r 2.449152 1 2 ack 40 ------- 0 1.1 2.0 11 182
+ 2.449152 2 1 tcp 10040 ------- 0 2.0 1.1 14 184
- 2.449152 2 1 tcp 10040 ------- 0 2.0 1.1 14 184
r 2.449376 1 0 ack 40 ------- 0 1.0 0.0 67 183
+ 2.449376 0 1 tcp 10040 ------- 0 0.0 1.0 71 185
- 2.455376 0 1 tcp 10040 ------- 0 0.0 1.0 71 185
r 2.460376 0 1 tcp 10040 ------- 0 0.0 1.0 70 181
+ 2.460376 1 0 ack 40 ------- 0 1.0 0.0 67 186
- 2.460376 1 0 ack 40 ------- 0 1.0 0.0 67 186
r 2.46544 1 0 ack 40 ------- 0 1.0 0.0 67 186
+ 2.46544 0 1 tcp 10040 ------- 0 0.0 1.0 72 187
r 2.470216 2 1 tcp 10040 ------- 0 2.0 1.1 14 184
+ 2.470216 1 2 ack 40 ------- 0 1.1 2.0 11 188
- 2.470216 1 2 ack 40 ------- 0 1.1 2.0 11 188
- 2.47144 0 1 tcp 10040 ------- 0 0.0 1.0 72 187
r 2.47528 1 2 ack 40 ------- 0 1.1 2.0 11 188
+ 2.47528 2 1 tcp 10040 ------- 0 2.0 1.1 15 189
- 2.47528 2 1 tcp 10040 ------- 0 2.0 1.1 15 189
r 2.47644 0 1 tcp 10040 ------- 0 0.0 1.0 71 185
+ 2.47644 1 0 ack 40 ------- 0 1.0 0.0 67 190
- 2.47644 1 0 ack 40 ------- 0 1.0 0.0 67 190
r 2.481504 1 0 ack 40 ------- 0 1.0 0.0 67 190
+ 2.481504 0 1 tcp 10040 ---A--- 0 0.0 1.0 68 191
- 2.487504 0 1 tcp 10040 ---A--- 0 0.0 1.0 68 191
r 2.492504 0 1 tcp 10040 ------- 0 0.0 1.0 72 187
+ 2.492504 1 0 ack 40 ------- 0 1.0 0.0 67 192
- 2.492504 1 0 ack 40 ------- 0 1.0 0.0 67 192
r 2.496344 2 1 tcp 10040 ------- 0 2.0 1.1 15 189
+ 2.496344 1 2 ack 40 ------- 0 1.1 2.0 11 193
- 2.496344 1 2 ack 40 ------- 0 1.1 2.0 11 193
r 2.497568 1 0 ack 40 ------- 0 1.0 0.0 67 192
r 2.501408 1 2 ack 40 ------- 0 1.1 2.0 11 193
+ 2.501408 2 1 tcp 10040 ---A--- 0 2.0 1.1 12 194
- 2.501408 2 1 tcp 10040 ---A--- 0 2.0 1.1 12 194
r 2.508568 0 1 tcp 10040 ---A--- 0 0.0 1.0 68 191
+ 2.508568 1 0 ack 40 ------- 0 1.0 0.0 72 195
- 2.508568 1 0 ack 40 ------- 0 1.0 0.0 72 195
r 2.513632 1 0 ack 40 ------- 0 1.0 0.0 72 195
+ 2.513632 0 1 tcp 10040 ------- 0 0.0 1.0 73 196
- 2.513632 0 1 tcp 10040 ------- 0 0.0 1.0 73 196
+ 2.513632 0 1 tcp 10040 ------- 0 0.0 1.0 74 197
r 2.522472 2 1 tcp 10040 ---A--- 0 2.0 1.1 12 194
+ 2.522472 1 2 ack 40 ------- 0 1.1 2.0 15 198
- 2.522472 1 2 ack 40 ------- 0 1.1 2.0 15 198
r 2.527536 1 2 ack 40 ------- 0 1.1 2.0 15 198
+ 2.527536 2 1 tcp 10040 ------- 0 2.0 1.1 16 199
- 2.527536 2 1 tcp 10040 ------- 0 2.0 1.1 16 199
+ 2.527536 2 1 tcp 10040 ------- 0 2.0 1.1 17 200
- 2.529696 0 1 tcp 10040 ------- 0 0.0 1.0 74 197
r 2.534696 0 1 tcp 10040 ------- 0 0.0 1.0 73 196
+ 2.534696 1 0 ack 40 ------- 0 1.0 0.0 73 201
- 2.534696 1 0 ack 40 ------- 0 1.0 0.0 73 201
r 2.53976 1 0 ack 40 ------- 0 1.0 0.0 73 201
+ 2.53976 0 1 tcp 10040 ------- 0 0.0 1.0 75 202
+ 2.53976 0 1 tcp 10040 ------- 0 0.0 1.0 76 203
d 2.53976 0 1 tcp 10040 ------- 0 0.0 1.0 76 203
- 2.5436 2 1 tcp 10040 ------- 0 2.0 1.1 17 200
- 2.54576 0 1 tcp 10040 ------- 0 0.0 1.0 75 202
r 2.5486 2 1 tcp 10040 ------- 0 2.0 1.1 16 199
+ 2.5486 1 2 ack 40 ------- 0 1.1 2.0 16 204
- 2.5486 1 2 ack 40 ------- 0 1.1 2.0 16 204
r 2.55076 0 1 tcp 10040 ------- 0 0.0 1.0 74 197
+ 2.55076 1 0 ack 40 ------- 0 1.0 0.0 74 205
- 2.55076 1 0 ack 40 ------- 0 1.0 0.0 74 205
r 2.553664 1 2 ack 40 ------- 0 1.1 2.0 16 204
+ 2.553664 2 1 tcp 10040 ------- 0 2.0 1.1 18 206
r 2.555824 1 0 ack 40 ------- 0 1.0 0.0 74 205
+ 2.555824 0 1 tcp 10040 ------- 0 0.0 1.0 77 207
- 2.559664 2 1 tcp 10040 ------- 0 2.0 1.1 18 206
- 2.561824 0 1 tcp 10040 ------- 0 0.0 1.0 77 207
r 2.564664 2 1 tcp 10040 ------- 0 2.0 1.1 17 200
+ 2.564664 1 2 ack 40 ------- 0 1.1 2.0 17 208
- 2.564664 1 2 ack 40 ------- 0 1.1 2.0 17 208
r 2.566824 0 1 tcp 10040 ------- 0 0.0 1.0 75 202
+ 2.566824 1 0 ack 40 ------- 0 1.0 0.0 75 209
- 2.566824 1 0 ack 40 ------- 0 1.0 0.0 75 209
r 2.569728 1 2 ack 40 ------- 0 1.1 2.0 17 208
+ 2.569728 2 1 tcp 10040 ------- 0 2.0 1.1 19 210
+ 2.569728 2 1 tcp 10040 ------- 0 2.0 1.1 20 211
d 2.569728 2 1 tcp 10040 ------- 0 2.0 1.1 20 211
r 2.571888 1 0 ack 40 ------- 0 1.0 0.0 75 209
+ 2.571888 0 1 tcp 10040 ------- 0 0.0 1.0 78 212
- 2.575728 2 1 tcp 10040 ------- 0 2.0 1.1 19 210
- 2.577888 0 1 tcp 10040 ------- 0 0.0 1.0 78 212
r 2.580728 2 1 tcp 10040 ------- 0 2.0 1.1 18 206
+ 2.580728 1 2 ack 40 ------- 0 1.1 2.0 18 213
- 2.580728 1 2 ack 40 ------- 0 1.1 2.0 18 213
r 2.582888 0 1 tcp 10040 ------- 0 0.0 1.0 77 207
+ 2.582888 1 0 ack 40 ------- 0 1.0 0.0 75 214
- 2.582888 1 0 ack 40 ------- 0 1.0 0.0 75 214
r 2.585792 1 2 ack 40 ------- 0 1.1 2.0 18 213
+ 2.585792 2 1 tcp 10040 ------- 0 2.0 1.1 21 215
r 2.587952 1 0 ack 40 ------- 0 1.0 0.0 75 214
+ 2.587952 0 1 tcp 10040 ------- 0 0.0 1.0 79 216
- 2.591792 2 1 tcp 10040 ------- 0 2.0 1.1 21 215
- 2.593952 0 1 tcp 10040 ------- 0 0.0 1.0 79 216