+ 1 0 1 cbr 210 ------- 0 0.0 1.0 0 0
- 1 0 1 cbr 210 ------- 0 0.0 1.0 0 0
+ 1.00375 0 1 cbr 210 ------- 0 0.0 1.0 1 1
- 1.00375 0 1 cbr 210 ------- 0 0.0 1.0 1 1
r 1.00556 0 1 cbr 210 ------- 0 0.0 1.0 0 0
+ 1.0075 0 1 cbr 210 ------- 0 0.0 1.0 2 2
- 1.0075 0 1 cbr 210 ------- 0 0.0 1.0 2 2
r 1.00931 0 1 cbr 210 ------- 0 0.0 1.0 1 1
+ 1.01125 0 1 cbr 210 ------- 0 0.0 1.0 3 3
- 1.01125 0 1 cbr 210 ------- 0 0.0 1.0 3 3
r 1.01306 0 1 cbr 210 ------- 0 0.0 1.0 2 2
+ 1.015 0 1 cbr 210 ------- 0 0.0 1.0 4 4
- 1.015 0 1 cbr 210 ------- 0 0.0 1.0 4 4
r 1.01681 0 1 cbr 210 ------- 0 0.0 1.0 3 3
+ 1.01875 0 1 cbr 210 ------- 0 0.0 1.0 5 5
- 1.01875 0 1 cbr 210 ------- 0 0.0 1.0 5 5
r 1.02056 0 1 cbr 210 ------- 0 0.0 1.0 4 4
+ 1.0225 0 1 cbr 210 ------- 0 0.0 1.0 6 6
- 1.0225 0 1 cbr 210 ------- 0 0.0 1.0 6 6
r 1.02431 0 1 cbr 210 ------- 0 0.0 1.0 5 5
+ 1.02625 0 1 cbr 210 ------- 0 0.0 1.0 7 7
- 1.02625 0 1 cbr 210 ------- 0 0.0 1.0 7 7
r 1.02806 0 1 cbr 210 ------- 0 0.0 1.0 6 6
+ 1.03 0 1 cbr 210 ------- 0 0.0 1.0 8 8
- 1.03 0 1 cbr 210 ------- 0 0.0 1.0 8 8
r 1.03181 0 1 cbr 210 ------- 0 0.0 1.0 7 7
+ 1.03375 0 1 cbr 210 ------- 0 0.0 1.0 9 9
- 1.03375 0 1 cbr 210 ------- 0 0.0 1.0 9 9
r 1.03556 0 1 cbr 210 ------- 0 0.0 1.0 8 8
+ 1.0375 0 1 cbr 210 ------- 0 0.0 1.0 10 10
- 1.0375 0 1 cbr 210 ------- 0 0.0 1.0 10 10
r 1.03931 0 1 cbr 210 ------- 0 0.0 1.0 9 9
+ 1.04125 0 1 cbr 210 ------- 0 0.0 1.0 11 11
- 1.04125 0 1 cbr 210 ------- 0 0.0 1.0 11 11
r 1.04306 0 1 cbr 210 ------- 0 0.0 1.0 10 10
+ 1.045 0 1 cbr 210 ------- 0 0.0 1.0 12 12
- 1.045 0 1 cbr 210 ------- 0 0.0 1.0 12 12
r 1.04681 0 1 cbr 210 ------- 0 0.0 1.0 11 11
+ 1.04875 0 1 cbr 210 ------- 0 0.0 1.0 13 13
- 1.04875 0 1 cbr 210 ------- 0 0.0 1.0 13 13
r 1.05056 0 1 cbr 210 ------- 0 0.0 1.0 12 12
+ 1.0525 0 1 cbr 210 ------- 0 0.0 1.0 14 14
- 1.0525 0 1 cbr 210 ------- 0 0.0 1.0 14 14
r 1.05431 0 1 cbr 210 ------- 0 0.0 1.0 13 13
+ 1.05625 0 1 cbr 210 ------- 0 0.0 1.0 15 15
- 1.05625 0 1 cbr 210 ------- 0 0.0 1.0 15 15
r 1.05806 0 1 cbr 210 ------- 0 0.0 1.0 14 14
+ 1.06 0 1 cbr 210 ------- 0 0.0 1.0 16 16
- 1.06 0 1 cbr 210 ------- 0 0.0 1.0 16 16
r 1.06181 0 1 cbr 210 ------- 0 0.0 1.0 15 15
+ 1.06375 0 1 cbr 210 ------- 0 0.0 1.0 17 17
- 1.06375 0 1 cbr 210 ------- 0 0.0 1.0 17 17
r 1.06556 0 1 cbr 210 ------- 0 0.0 1.0 16 16
+ 1.0675 0 1 cbr 210 ------- 0 0.0 1.0 18 18
- 1.0675 0 1 cbr 210 ------- 0 0.0 1.0 18 18
r 1.06931 0 1 cbr 210 ------- 0 0.0 1.0 17 17
+ 1.07125 0 1 cbr 210 ------- 0 0.0 1.0 19 19
- 1.07125 0 1 cbr 210 ------- 0 0.0 1.0 19 19
r 1.07306 0 1 cbr 210 ------- 0 0.0 1.0 18 18
+ 1.075 0 1 cbr 210 ------- 0 0.0 1.0 20 20
- 1.075 0 1 cbr 210 ------- 0 0.0 1.0 20 20
r 1.07681 0 1 cbr 210 ------- 0 0.0 1.0 19 19
+ 1.07875 0 1 cbr 210 ------- 0 0.0 1.0 21 21
- 1.07875 0 1 cbr 210 ------- 0 0.0 1.0 21 21
r 1.08056 0 1 cbr 210 ------- 0 0.0 1.0 20 20
+ 1.0825 0 1 cbr 210 ------- 0 0.0 1.0 22 22
- 1.0825 0 1 cbr 210 ------- 0 0.0 1.0 22 22
r 1.08431 0 1 cbr 210 ------- 0 0.0 1.0 21 21
+ 1.08625 0 1 cbr 210 ------- 0 0.0 1.0 23 23
- 1.08625 0 1 cbr 210 ------- 0 0.0 1.0 23 23
r 1.08806 0 1 cbr 210 ------- 0 0.0 1.0 22 22
+ 1.09 0 1 cbr 210 ------- 0 0.0 1.0 24 24
- 1.09 0 1 cbr 210 ------- 0 0.0 1.0 24 24
r 1.09181 0 1 cbr 210 ------- 0 0.0 1.0 23 23
+ 1.09375 0 1 cbr 210 ------- 0 0.0 1.0 25 25
- 1.09375 0 1 cbr 210 ------- 0 0.0 1.0 25 25
r 1.09556 0 1 cbr 210 ------- 0 0.0 1.0 24 24
+ 1.0975 0 1 cbr 210 ------- 0 0.0 1.0 26 26
- 1.0975 0 1 cbr 210 ------- 0 0.0 1.0 26 26
r 1.09931 0 1 cbr 210 ------- 0 0.0 1.0 25 25
+ 1.10125 0 1 cbr 210 ------- 0 0.0 1.0 27 27
- 1.10125 0 1 cbr 210 ------- 0 0.0 1.0 27 27
r 1.10306 0 1 cbr 210 ------- 0 0.0 1.0 26 26
+ 1.105 0 1 cbr 210 ------- 0 0.0 1.0 28 28
- 1.105 0 1 cbr 210 ------- 0 0.0 1.0 28 28
r 1.10681 0 1 cbr 210 ------- 0 0.0 1.0 27 27
+ 1.10875 0 1 cbr 210 ------- 0 0.0 1.0 29 29
- 1.10875 0 1 cbr 210 ------- 0 0.0 1.0 29 29
r 1.11056 0 1 cbr 210 ------- 0 0.0 1.0 28 28
+ 1.1125 0 1 cbr 210 ------- 0 0.0 1.0 30 30
- 1.1125 0 1 cbr 210 ------- 0 0.0 1.0 30 30
r 1.11431 0 1 cbr 210 ------- 0 0.0 1.0 29 29
+ 1.11625 0 1 cbr 210 ------- 0 0.0 1.0 31 31
- 1.11625 0 1 cbr 210 ------- 0 0.0 1.0 31 31
r 1.11806 0 1 cbr 210 ------- 0 0.0 1.0 30 30
+ 1.12 0 1 cbr 210 ------- 0 0.0 1.0 32 32
- 1.12 0 1 cbr 210 ------- 0 0.0 1.0 32 32
r 1.12181 0 1 cbr 210 ------- 0 0.0 1.0 31 31
+ 1.12375 0 1 cbr 210 ------- 0 0.0 1.0 33 33
- 1.12375 0 1 cbr 210 ------- 0 0.0 1.0 33 33
r 1.12556 0 1 cbr 210 ------- 0 0.0 1.0 32 32
+ 1.1275 0 1 cbr 210 ------- 0 0.0 1.0 34 34
- 1.1275 0 1 cbr 210 ------- 0 0.0 1.0 34 34
r 1.12931 0 1 cbr 210 ------- 0 0.0 1.0 33 33
+ 1.13125 0 1 cbr 210 ------- 0 0.0 1.0 35 35
- 1.13125 0 1 cbr 210 ------- 0 0.0 1.0 35 35
r 1.13306 0 1 cbr 210 ------- 0 0.0 1.0 34 34
+ 1.135 0 1 cbr 210 ------- 0 0.0 1.0 36 36
- 1.135 0 1 cbr 210 ------- 0 0.0 1.0 36 36
r 1.13681 0 1 cbr 210 ------- 0 0.0 1.0 35 35
+ 1.13875 0 1 cbr 210 ------- 0 0.0 1.0 37 37
- 1.13875 0 1 cbr 210 ------- 0 0.0 1.0 37 37
r 1.14056 0 1 cbr 210 ------- 0 0.0 1.0 36 36
+ 1.1425 0 1 cbr 210 ------- 0 0.0 1.0 38 38
- 1.1425 0 1 cbr 210 ------- 0 0.0 1.0 38 38
r 1.14431 0 1 cbr 210 ------- 0 0.0 1.0 37 37
+ 1.14625 0 1 cbr 210 ------- 0 0.0 1.0 39 39
- 1.14625 0 1 cbr 210 ------- 0 0.0 1.0 39 39
r 1.14806 0 1 cbr 210 ------- 0 0.0 1.0 38 38
+ 1.15 0 1 cbr 210 ------- 0 0.0 1.0 40 40
- 1.15 0 1 cbr 210 ------- 0 0.0 1.0 40 40
r 1.15181 0 1 cbr 210 ------- 0 0.0 1.0 39 39
+ 1.15375 0 1 cbr 210 ------- 0 0.0 1.0 41 41
- 1.15375 0 1 cbr 210 ------- 0 0.0 1.0 41 41
r 1.15556 0 1 cbr 210 ------- 0 0.0 1.0 40 40
+ 1.1575 0 1 cbr 210 ------- 0 0.0 1.0 42 42
- 1.1575 0 1 cbr 210 ------- 0 0.0 1.0 42 42
r 1.15931 0 1 cbr 210 ------- 0 0.0 1.0 41 41
+ 1.16125 0 1 cbr 210 ------- 0 0.0 1.0 43 43
- 1.16125 0 1 cbr 210 ------- 0 0.0 1.0 43 43
r 1.16306 0 1 cbr 210 ------- 0 0.0 1.0 42 42
+ 1.165 0 1 cbr 210 ------- 0 0.0 1.0 44 44
- 1.165 0 1 cbr 210 ------- 0 0.0 1.0 44 44
r 1.16681 0 1 cbr 210 ------- 0 0.0 1.0 43 43
+ 1.16875 0 1 cbr 210 ------- 0 0.0 1.0 45 45
- 1.16875 0 1 cbr 210 ------- 0 0.0 1.0 45 45
r 1.17056 0 1 cbr 210 ------- 0 0.0 1.0 44 44
+ 1.1725 0 1 cbr 210 ------- 0 0.0 1.0 46 46
- 1.1725 0 1 cbr 210 ------- 0 0.0 1.0 46 46
r 1.17431 0 1 cbr 210 ------- 0 0.0 1.0 45 45
+ 1.17625 0 1 cbr 210 ------- 0 0.0 1.0 47 47
- 1.17625 0 1 cbr 210 ------- 0 0.0 1.0 47 47
r 1.17806 0 1 cbr 210 ------- 0 0.0 1.0 46 46
+ 1.18 0 1 cbr 210 ------- 0 0.0 1.0 48 48
- 1.18 0 1 cbr 210 ------- 0 0.0 1.0 48 48
r 1.18181 0 1 cbr 210 ------- 0 0.0 1.0 47 47
+ 1.18375 0 1 cbr 210 ------- 0 0.0 1.0 49 49
- 1.18375 0 1 cbr 210 ------- 0 0.0 1.0 49 49
r 1.18556 0 1 cbr 210 ------- 0 0.0 1.0 48 48
+ 1.1875 0 1 cbr 210 ------- 0 0.0 1.0 50 50
- 1.1875 0 1 cbr 210 ------- 0 0.0 1.0 50 50
r 1.18931 0 1 cbr 210 ------- 0 0.0 1.0 49 49
+ 1.19125 0 1 cbr 210 ------- 0 0.0 1.0 51 51
- 1.19125 0 1 cbr 210 ------- 0 0.0 1.0 51 51
r 1.19306 0 1 cbr 210 ------- 0 0.0 1.0 50 50
+ 1.195 0 1 cbr 210 ------- 0 0.0 1.0 52 52
- 1.195 0 1 cbr 210 ------- 0 0.0 1.0 52 52
r 1.19681 0 1 cbr 210 ------- 0 0.0 1.0 51 51
+ 1.19875 0 1 cbr 210 ------- 0 0.0 1.0 53 53
- 1.19875 0 1 cbr 210 ------- 0 0.0 1.0 53 53
r 1.20056 0 1 cbr 210 ------- 0 0.0 1.0 52 52
+ 1.2025 0 1 cbr 210 ------- 0 0.0 1.0 54 54
- 1.2025 0 1 cbr 210 ------- 0 0.0 1.0 54 54
r 1.20431 0 1 cbr 210 ------- 0 0.0 1.0 53 53
+ 1.20625 0 1 cbr 210 ------- 0 0.0 1.0 55 55
- 1.20625 0 1 cbr 210 ------- 0 0.0 1.0 55 55
r 1.20806 0 1 cbr 210 ------- 0 0.0 1.0 54 54
+ 1.21 0 1 cbr 210 ------- 0 0.0 1.0 56 56
- 1.21 0 1 cbr 210 ------- 0 0.0 1.0 56 56
r 1.21181 0 1 cbr 210 ------- 0 0.0 1.0 55 55
+ 1.21375 0 1 cbr 210 ------- 0 0.0 1.0 57 57
- 1.21375 0 1 cbr 210 ------- 0 0.0 1.0 57 57
r 1.21556 0 1 cbr 210 ------- 0 0.0 1.0 56 56
+ 1.2175 0 1 cbr 210 ------- 0 0.0 1.0 58 58
- 1.2175 0 1 cbr 210 ------- 0 0.0 1.0 58 58
r 1.21931 0 1 cbr 210 ------- 0 0.0 1.0 57 57
+ 1.22125 0 1 cbr 210 ------- 0 0.0 1.0 59 59
- 1.22125 0 1 cbr 210 ------- 0 0.0 1.0 59 59
r 1.22306 0 1 cbr 210 ------- 0 0.0 1.0 58 58
+ 1.225 0 1 cbr 210 ------- 0 0.0 1.0 60 60
- 1.225 0 1 cbr 210 ------- 0 0.0 1.0 60 60
r 1.22681 0 1 cbr 210 ------- 0 0.0 1.0 59 59
+ 1.22875 0 1 cbr 210 ------- 0 0.0 1.0 61 61
- 1.22875 0 1 cbr 210 ------- 0 0.0 1.0 61 61
r 1.23056 0 1 cbr 210 ------- 0 0.0 1.0 60 60
+ 1.2325 0 1 cbr 210 ------- 0 0.0 1.0 62 62
- 1.2325 0 1 cbr 210 ------- 0 0.0 1.0 62 62
r 1.23431 0 1 cbr 210 ------- 0 0.0 1.0 61 61
+ 1.23625 0 1 cbr 210 ------- 0 0.0 1.0 63 63
- 1.23625 0 1 cbr 210 ------- 0 0.0 1.0 63 63
r 1.23806 0 1 cbr 210 ------- 0 0.0 1.0 62 62
+ 1.24 0 1 cbr 210 ------- 0 0.0 1.0 64 64
- 1.24 0 1 cbr 210 ------- 0 0.0 1.0 64 64
r 1.24181 0 1 cbr 210 ------- 0 0.0 1.0 63 63
+ 1.24375 0 1 cbr 210 ------- 0 0.0 1.0 65 65
- 1.24375 0 1 cbr 210 ------- 0 0.0 1.0 65 65
r 1.24556 0 1 cbr 210 ------- 0 0.0 1.0 64 64
+ 1.2475 0 1 cbr 210 ------- 0 0.0 1.0 66 66
- 1.2475 0 1 cbr 210 ------- 0 0.0 1.0 66 66
r 1.24931 0 1 cbr 210 ------- 0 0.0 1.0 65 65
+ 1.25125 0 1 cbr 210 ------- 0 0.0 1.0 67 67
- 1.25125 0 1 cbr 210 ------- 0 0.0 1.0 67 67
r 1.25306 0 1 cbr 210 ------- 0 0.0 1.0 66 66
+ 1.255 0 1 cbr 210 ------- 0 0.0 1.0 68 68
- 1.255 0 1 cbr 210 ------- 0 0.0 1.0 68 68
r 1.25681 0 1 cbr 210 ------- 0 0.0 1.0 67 67
+ 1.25875 0 1 cbr 210 ------- 0 0.0 1.0 69 69
- 1.25875 0 1 cbr 210 ------- 0 0.0 1.0 69 69
r 1.26056 0 1 cbr 210 ------- 0 0.0 1.0 68 68
+ 1.2625 0 1 cbr 210 ------- 0 0.0 1.0 70 70
- 1.2625 0 1 cbr 210 ------- 0 0.0 1.0 70 70
r 1.26431 0 1 cbr 210 ------- 0 0.0 1.0 69 69
+ 1.26625 0 1 cbr 210 ------- 0 0.0 1.0 71 71
- 1.26625 0 1 cbr 210 ------- 0 0.0 1.0 71 71
r 1.26806 0 1 cbr 210 ------- 0 0.0 1.0 70 70
+ 1.27 0 1 cbr 210 ------- 0 0.0 1.0 72 72
- 1.27 0 1 cbr 210 ------- 0 0.0 1.0 72 72
r 1.27181 0 1 cbr 210 ------- 0 0.0 1.0 71 71
+ 1.27375 0 1 cbr 210 ------- 0 0.0 1.0 73 73
- 1.27375 0 1 cbr 210 ------- 0 0.0 1.0 73 73
r 1.27556 0 1 cbr 210 ------- 0 0.0 1.0 72 72
+ 1.2775 0 1 cbr 210 ------- 0 0.0 1.0 74 74
- 1.2775 0 1 cbr 210 ------- 0 0.0 1.0 74 74
r 1.27931 0 1 cbr 210 ------- 0 0.0 1.0 73 73
+ 1.28125 0 1 cbr 210 ------- 0 0.0 1.0 75 75
- 1.28125 0 1 cbr 210 ------- 0 0.0 1.0 75 75
r 1.28306 0 1 cbr 210 ------- 0 0.0 1.0 74 74
+ 1.285 0 1 cbr 210 ------- 0 0.0 1.0 76 76
- 1.285 0 1 cbr 210 ------- 0 0.0 1.0 76 76
r 1.28681 0 1 cbr 210 ------- 0 0.0 1.0 75 75
+ 1.28875 0 1 cbr 210 ------- 0 0.0 1.0 77 77
- 1.28875 0 1 cbr 210 ------- 0 0.0 1.0 77 77
r 1.29056 0 1 cbr 210 ------- 0 0.0 1.0 76 76
+ 1.2925 0 1 cbr 210 ------- 0 0.0 1.0 78 78
- 1.2925 0 1 cbr 210 ------- 0 0.0 1.0 78 78
r 1.29431 0 1 cbr 210 ------- 0 0.0 1.0 77 77
+ 1.29625 0 1 cbr 210 ------- 0 0.0 1.0 79 79
- 1.29625 0 1 cbr 210 ------- 0 0.0 1.0 79 79
r 1.29806 0 1 cbr 210 ------- 0 0.0 1.0 78 78
+ 1.3 0 1 cbr 210 ------- 0 0.0 1.0 80 80
- 1.3 0 1 cbr 210 ------- 0 0.0 1.0 80 80
r 1.30181 0 1 cbr 210 ------- 0 0.0 1.0 79 79
+ 1.30375 0 1 cbr 210 ------- 0 0.0 1.0 81 81
- 1.30375 0 1 cbr 210 ------- 0 0.0 1.0 81 81
r 1.30556 0 1 cbr 210 ------- 0 0.0 1.0 80 80
+ 1.3075 0 1 cbr 210 ------- 0 0.0 1.0 82 82
- 1.3075 0 1 cbr 210 ------- 0 0.0 1.0 82 82
r 1.30931 0 1 cbr 210 ------- 0 0.0 1.0 81 81
+ 1.31125 0 1 cbr 210 ------- 0 0.0 1.0 83 83
- 1.31125 0 1 cbr 210 ------- 0 0.0 1.0 83 83
r 1.31306 0 1 cbr 210 ------- 0 0.0 1.0 82 82
+ 1.315 0 1 cbr 210 ------- 0 0.0 1.0 84 84
- 1.315 0 1 cbr 210 ------- 0 0.0 1.0 84 84
r 1.31681 0 1 cbr 210 ------- 0 0.0 1.0 83 83
+ 1.31875 0 1 cbr 210 ------- 0 0.0 1.0 85 85
- 1.31875 0 1 cbr 210 ------- 0 0.0 1.0 85 85
r 1.32056 0 1 cbr 210 ------- 0 0.0 1.0 84 84
+ 1.3225 0 1 cbr 210 ------- 0 0.0 1.0 86 86
- 1.3225 0 1 cbr 210 ------- 0 0.0 1.0 86 86
r 1.32431 0 1 cbr 210 ------- 0 0.0 1.0 85 85
+ 1.32625 0 1 cbr 210 ------- 0 0.0 1.0 87 87
- 1.32625 0 1 cbr 210 ------- 0 0.0 1.0 87 87
r 1.32806 0 1 cbr 210 ------- 0 0.0 1.0 86 86
+ 1.33 0 1 cbr 210 ------- 0 0.0 1.0 88 88
- 1.33 0 1 cbr 210 ------- 0 0.0 1.0 88 88
r 1.33181 0 1 cbr 210 ------- 0 0.0 1.0 87 87
+ 1.33375 0 1 cbr 210 ------- 0 0.0 1.0 89 89
- 1.33375 0 1 cbr 210 ------- 0 0.0 1.0 89 89
r 1.33556 0 1 cbr 210 ------- 0 0.0 1.0 88 88
+ 1.3375 0 1 cbr 210 ------- 0 0.0 1.0 90 90
- 1.3375 0 1 cbr 210 ------- 0 0.0 1.0 90 90
r 1.33931 0 1 cbr 210 ------- 0 0.0 1.0 89 89
+ 1.34125 0 1 cbr 210 ------- 0 0.0 1.0 91 91
- 1.34125 0 1 cbr 210 ------- 0 0.0 1.0 91 91
r 1.34306 0 1 cbr 210 ------- 0 0.0 1.0 90 90
+ 1.345 0 1 cbr 210 ------- 0 0.0 1.0 92 92
- 1.345 0 1 cbr 210 ------- 0 0.0 1.0 92 92
r 1.34681 0 1 cbr 210 ------- 0 0.0 1.0 91 91
+ 1.34875 0 1 cbr 210 ------- 0 0.0 1.0 93 93
- 1.34875 0 1 cbr 210 ------- 0 0.0 1.0 93 93
r 1.35056 0 1 cbr 210 ------- 0 0.0 1.0 92 92
+ 1.3525 0 1 cbr 210 ------- 0 0.0 1.0 94 94
- 1.3525 0 1 cbr 210 ------- 0 0.0 1.0 94 94
r 1.35431 0 1 cbr 210 ------- 0 0.0 1.0 93 93
+ 1.35625 0 1 cbr 210 ------- 0 0.0 1.0 95 95
- 1.35625 0 1 cbr 210 ------- 0 0.0 1.0 95 95
r 1.35806 0 1 cbr 210 ------- 0 0.0 1.0 94 94
+ 1.36 0 1 cbr 210 ------- 0 0.0 1.0 96 96
- 1.36 0 1 cbr 210 ------- 0 0.0 1.0 96 96
r 1.36181 0 1 cbr 210 ------- 0 0.0 1.0 95 95
+ 1.36375 0 1 cbr 210 ------- 0 0.0 1.0 97 97
- 1.36375 0 1 cbr 210 ------- 0 0.0 1.0 97 97
r 1.36556 0 1 cbr 210 ------- 0 0.0 1.0 96 96
+ 1.3675 0 1 cbr 210 ------- 0 0.0 1.0 98 98
- 1.3675 0 1 cbr 210 ------- 0 0.0 1.0 98 98
r 1.36931 0 1 cbr 210 ------- 0 0.0 1.0 97 97
+ 1.37125 0 1 cbr 210 ------- 0 0.0 1.0 99 99
- 1.37125 0 1 cbr 210 ------- 0 0.0 1.0 99 99
r 1.37306 0 1 cbr 210 ------- 0 0.0 1.0 98 98
+ 1.375 0 1 cbr 210 ------- 0 0.0 1.0 100 100
- 1.375 0 1 cbr 210 ------- 0 0.0 1.0 100 100
r 1.37681 0 1 cbr 210 ------- 0 0.0 1.0 99 99
+ 1.37875 0 1 cbr 210 ------- 0 0.0 1.0 101 101
- 1.37875 0 1 cbr 210 ------- 0 0.0 1.0 101 101
r 1.38056 0 1 cbr 210 ------- 0 0.0 1.0 100 100
+ 1.3825 0 1 cbr 210 ------- 0 0.0 1.0 102 102
- 1.3825 0 1 cbr 210 ------- 0 0.0 1.0 102 102
r 1.38431 0 1 cbr 210 ------- 0 0.0 1.0 101 101
+ 1.38625 0 1 cbr 210 ------- 0 0.0 1.0 103 103
- 1.38625 0 1 cbr 210 ------- 0 0.0 1.0 103 103
r 1.38806 0 1 cbr 210 ------- 0 0.0 1.0 102 102
+ 1.39 0 1 cbr 210 ------- 0 0.0 1.0 104 104
- 1.39 0 1 cbr 210 ------- 0 0.0 1.0 104 104
r 1.39181 0 1 cbr 210 ------- 0 0.0 1.0 103 103
+ 1.39375 0 1 cbr 210 ------- 0 0.0 1.0 105 105
- 1.39375 0 1 cbr 210 ------- 0 0.0 1.0 105 105
r 1.39556 0 1 cbr 210 ------- 0 0.0 1.0 104 104
+ 1.3975 0 1 cbr 210 ------- 0 0.0 1.0 106 106
- 1.3975 0 1 cbr 210 ------- 0 0.0 1.0 106 106
r 1.39931 0 1 cbr 210 ------- 0 0.0 1.0 105 105
+ 1.40125 0 1 cbr 210 ------- 0 0.0 1.0 107 107
- 1.40125 0 1 cbr 210 ------- 0 0.0 1.0 107 107
r 1.40306 0 1 cbr 210 ------- 0 0.0 1.0 106 106
+ 1.405 0 1 cbr 210 ------- 0 0.0 1.0 108 108
- 1.405 0 1 cbr 210 ------- 0 0.0 1.0 108 108
r 1.40681 0 1 cbr 210 ------- 0 0.0 1.0 107 107
+ 1.40875 0 1 cbr 210 ------- 0 0.0 1.0 109 109
- 1.40875 0 1 cbr 210 ------- 0 0.0 1.0 109 109
r 1.41056 0 1 cbr 210 ------- 0 0.0 1.0 108 108
+ 1.4125 0 1 cbr 210 ------- 0 0.0 1.0 110 110
- 1.4125 0 1 cbr 210 ------- 0 0.0 1.0 110 110
r 1.41431 0 1 cbr 210 ------- 0 0.0 1.0 109 109
+ 1.41625 0 1 cbr 210 ------- 0 0.0 1.0 111 111
- 1.41625 0 1 cbr 210 ------- 0 0.0 1.0 111 111
r 1.41806 0 1 cbr 210 ------- 0 0.0 1.0 110 110
+ 1.42 0 1 cbr 210 ------- 0 0.0 1.0 112 112
- 1.42 0 1 cbr 210 ------- 0 0.0 1.0 112 112
r 1.42181 0 1 cbr 210 ------- 0 0.0 1.0 111 111
+ 1.42375 0 1 cbr 210 ------- 0 0.0 1.0 113 113
- 1.42375 0 1 cbr 210 ------- 0 0.0 1.0 113 113
r 1.42556 0 1 cbr 210 ------- 0 0.0 1.0 112 112
+ 1.4275 0 1 cbr 210 ------- 0 0.0 1.0 114 114
- 1.4275 0 1 cbr 210 ------- 0 0.0 1.0 114 114
r 1.42931 0 1 cbr 210 ------- 0 0.0 1.0 113 113
+ 1.43125 0 1 cbr 210 ------- 0 0.0 1.0 115 115
- 1.43125 0 1 cbr 210 ------- 0 0.0 1.0 115 115
r 1.43306 0 1 cbr 210 ------- 0 0.0 1.0 114 114
+ 1.435 0 1 cbr 210 ------- 0 0.0 1.0 116 116
- 1.435 0 1 cbr 210 ------- 0 0.0 1.0 116 116
r 1.43681 0 1 cbr 210 ------- 0 0.0 1.0 115 115
+ 1.43875 0 1 cbr 210 ------- 0 0.0 1.0 117 117
- 1.43875 0 1 cbr 210 ------- 0 0.0 1.0 117 117
r 1.44056 0 1 cbr 210 ------- 0 0.0 1.0 116 116
+ 1.4425 0 1 cbr 210 ------- 0 0.0 1.0 118 118
- 1.4425 0 1 cbr 210 ------- 0 0.0 1.0 118 118
r 1.44431 0 1 cbr 210 ------- 0 0.0 1.0 117 117
+ 1.44625 0 1 cbr 210 ------- 0 0.0 1.0 119 119
- 1.44625 0 1 cbr 210 ------- 0 0.0 1.0 119 119
r 1.44806 0 1 cbr 210 ------- 0 0.0 1.0 118 118
+ 1.45 0 1 cbr 210 ------- 0 0.0 1.0 120 120
- 1.45 0 1 cbr 210 ------- 0 0.0 1.0 120 120
r 1.45181 0 1 cbr 210 ------- 0 0.0 1.0 119 119
+ 1.45375 0 1 cbr 210 ------- 0 0.0 1.0 121 121
- 1.45375 0 1 cbr 210 ------- 0 0.0 1.0 121 121
r 1.45556 0 1 cbr 210 ------- 0 0.0 1.0 120 120
+ 1.4575 0 1 cbr 210 ------- 0 0.0 1.0 122 122
- 1.4575 0 1 cbr 210 ------- 0 0.0 1.0 122 122
r 1.45931 0 1 cbr 210 ------- 0 0.0 1.0 121 121
+ 1.46125 0 1 cbr 210 ------- 0 0.0 1.0 123 123
- 1.46125 0 1 cbr 210 ------- 0 0.0 1.0 123 123
r 1.46306 0 1 cbr 210 ------- 0 0.0 1.0 122 122
+ 1.465 0 1 cbr 210 ------- 0 0.0 1.0 124 124
- 1.465 0 1 cbr 210 ------- 0 0.0 1.0 124 124
r 1.46681 0 1 cbr 210 ------- 0 0.0 1.0 123 123
+ 1.46875 0 1 cbr 210 ------- 0 0.0 1.0 125 125
- 1.46875 0 1 cbr 210 ------- 0 0.0 1.0 125 125
r 1.47056 0 1 cbr 210 ------- 0 0.0 1.0 124 124
+ 1.4725 0 1 cbr 210 ------- 0 0.0 1.0 126 126
- 1.4725 0 1 cbr 210 ------- 0 0.0 1.0 126 126
r 1.47431 0 1 cbr 210 ------- 0 0.0 1.0 125 125
+ 1.47625 0 1 cbr 210 ------- 0 0.0 1.0 127 127
- 1.47625 0 1 cbr 210 ------- 0 0.0 1.0 127 127
r 1.47806 0 1 cbr 210 ------- 0 0.0 1.0 126 126
+ 1.48 0 1 cbr 210 ------- 0 0.0 1.0 128 128
- 1.48 0 1 cbr 210 ------- 0 0.0 1.0 128 128
r 1.48181 0 1 cbr 210 ------- 0 0.0 1.0 127 127
+ 1.48375 0 1 cbr 210 ------- 0 0.0 1.0 129 129
- 1.48375 0 1 cbr 210 ------- 0 0.0 1.0 129 129
r 1.48556 0 1 cbr 210 ------- 0 0.0 1.0 128 128
+ 1.4875 0 1 cbr 210 ------- 0 0.0 1.0 130 130
- 1.4875 0 1 cbr 210 ------- 0 0.0 1.0 130 130
r 1.48931 0 1 cbr 210 ------- 0 0.0 1.0 129 129
+ 1.49125 0 1 cbr 210 ------- 0 0.0 1.0 131 131
- 1.49125 0 1 cbr 210 ------- 0 0.0 1.0 131 131
r 1.49306 0 1 cbr 210 ------- 0 0.0 1.0 130 130
+ 1.495 0 1 cbr 210 ------- 0 0.0 1.0 132 132
- 1.495 0 1 cbr 210 ------- 0 0.0 1.0 132 132
r 1.49681 0 1 cbr 210 ------- 0 0.0 1.0 131 131
+ 1.49875 0 1 cbr 210 ------- 0 0.0 1.0 133 133
- 1.49875 0 1 cbr 210 ------- 0 0.0 1.0 133 133
r 1.50056 0 1 cbr 210 ------- 0 0.0 1.0 132 132
+ 1.5025 0 1 cbr 210 ------- 0 0.0 1.0 134 134
- 1.5025 0 1 cbr 210 ------- 0 0.0 1.0 134 134
r 1.50431 0 1 cbr 210 ------- 0 0.0 1.0 133 133
+ 1.50625 0 1 cbr 210 ------- 0 0.0 1.0 135 135
- 1.50625 0 1 cbr 210 ------- 0 0.0 1.0 135 135
r 1.50806 0 1 cbr 210 ------- 0 0.0 1.0 134 134
+ 1.51 0 1 cbr 210 ------- 0 0.0 1.0 136 136
- 1.51 0 1 cbr 210 ------- 0 0.0 1.0 136 136
r 1.51181 0 1 cbr 210 ------- 0 0.0 1.0 135 135
+ 1.51375 0 1 cbr 210 ------- 0 0.0 1.0 137 137
- 1.51375 0 1 cbr 210 ------- 0 0.0 1.0 137 137
r 1.51556 0 1 cbr 210 ------- 0 0.0 1.0 136 136
+ 1.5175 0 1 cbr 210 ------- 0 0.0 1.0 138 138
- 1.5175 0 1 cbr 210 ------- 0 0.0 1.0 138 138
r 1.51931 0 1 cbr 210 ------- 0 0.0 1.0 137 137
+ 1.52125 0 1 cbr 210 ------- 0 0.0 1.0 139 139
- 1.52125 0 1 cbr 210 ------- 0 0.0 1.0 139 139
r 1.52306 0 1 cbr 210 ------- 0 0.0 1.0 138 138
+ 1.525 0 1 cbr 210 ------- 0 0.0 1.0 140 140
- 1.525 0 1 cbr 210 ------- 0 0.0 1.0 140 140
r 1.52681 0 1 cbr 210 ------- 0 0.0 1.0 139 139
+ 1.52875 0 1 cbr 210 ------- 0 0.0 1.0 141 141
- 1.52875 0 1 cbr 210 ------- 0 0.0 1.0 141 141
r 1.53056 0 1 cbr 210 ------- 0 0.0 1.0 140 140
+ 1.5325 0 1 cbr 210 ------- 0 0.0 1.0 142 142
- 1.5325 0 1 cbr 210 ------- 0 0.0 1.0 142 142
r 1.53431 0 1 cbr 210 ------- 0 0.0 1.0 141 141
+ 1.53625 0 1 cbr 210 ------- 0 0.0 1.0 143 143
- 1.53625 0 1 cbr 210 ------- 0 0.0 1.0 143 143
r 1.53806 0 1 cbr 210 ------- 0 0.0 1.0 142 142
+ 1.54 0 1 cbr 210 ------- 0 0.0 1.0 144 144
- 1.54 0 1 cbr 210 ------- 0 0.0 1.0 144 144
r 1.54181 0 1 cbr 210 ------- 0 0.0 1.0 143 143
+ 1.54375 0 1 cbr 210 ------- 0 0.0 1.0 145 145
- 1.54375 0 1 cbr 210 ------- 0 0.0 1.0 145 145
r 1.54556 0 1 cbr 210 ------- 0 0.0 1.0 144 144
+ 1.5475 0 1 cbr 210 ------- 0 0.0 1.0 146 146
- 1.5475 0 1 cbr 210 ------- 0 0.0 1.0 146 146
r 1.54931 0 1 cbr 210 ------- 0 0.0 1.0 145 145
+ 1.55125 0 1 cbr 210 ------- 0 0.0 1.0 147 147
- 1.55125 0 1 cbr 210 ------- 0 0.0 1.0 147 147
r 1.55306 0 1 cbr 210 ------- 0 0.0 1.0 146 146
+ 1.555 0 1 cbr 210 ------- 0 0.0 1.0 148 148
- 1.555 0 1 cbr 210 ------- 0 0.0 1.0 148 148
r 1.55681 0 1 cbr 210 ------- 0 0.0 1.0 147 147
+ 1.55875 0 1 cbr 210 ------- 0 0.0 1.0 149 149
- 1.55875 0 1 cbr 210 ------- 0 0.0 1.0 149 149
r 1.56056 0 1 cbr 210 ------- 0 0.0 1.0 148 148
+ 1.5625 0 1 cbr 210 ------- 0 0.0 1.0 150 150
- 1.5625 0 1 cbr 210 ------- 0 0.0 1.0 150 150
r 1.56431 0 1 cbr 210 ------- 0 0.0 1.0 149 149
+ 1.56625 0 1 cbr 210 ------- 0 0.0 1.0 151 151
- 1.56625 0 1 cbr 210 ------- 0 0.0 1.0 151 151
r 1.56806 0 1 cbr 210 ------- 0 0.0 1.0 150 150
+ 1.57 0 1 cbr 210 ------- 0 0.0 1.0 152 152
- 1.57 0 1 cbr 210 ------- 0 0.0 1.0 152 152
r 1.57181 0 1 cbr 210 ------- 0 0.0 1.0 151 151
+ 1.57375 0 1 cbr 210 ------- 0 0.0 1.0 153 153
- 1.57375 0 1 cbr 210 ------- 0 0.0 1.0 153 153
r 1.57556 0 1 cbr 210 ------- 0 0.0 1.0 152 152
+ 1.5775 0 1 cbr 210 ------- 0 0.0 1.0 154 154
- 1.5775 0 1 cbr 210 ------- 0 0.0 1.0 154 154
r 1.57931 0 1 cbr 210 ------- 0 0.0 1.0 153 153
+ 1.58125 0 1 cbr 210 ------- 0 0.0 1.0 155 155
- 1.58125 0 1 cbr 210 ------- 0 0.0 1.0 155 155
r 1.58306 0 1 cbr 210 ------- 0 0.0 1.0 154 154
+ 1.585 0 1 cbr 210 ------- 0 0.0 1.0 156 156
- 1.585 0 1 cbr 210 ------- 0 0.0 1.0 156 156
r 1.58681 0 1 cbr 210 ------- 0 0.0 1.0 155 155
+ 1.58875 0 1 cbr 210 ------- 0 0.0 1.0 157 157
- 1.58875 0 1 cbr 210 ------- 0 0.0 1.0 157 157
r 1.59056 0 1 cbr 210 ------- 0 0.0 1.0 156 156
+ 1.5925 0 1 cbr 210 ------- 0 0.0 1.0 158 158
- 1.5925 0 1 cbr 210 ------- 0 0.0 1.0 158 158
r 1.59431 0 1 cbr 210 ------- 0 0.0 1.0 157 157
+ 1.59625 0 1 cbr 210 ------- 0 0.0 1.0 159 159
- 1.59625 0 1 cbr 210 ------- 0 0.0 1.0 159 159
r 1.59806 0 1 cbr 210 ------- 0 0.0 1.0 158 158
+ 1.6 0 1 cbr 210 ------- 0 0.0 1.0 160 160
- 1.6 0 1 cbr 210 ------- 0 0.0 1.0 160 160
r 1.60181 0 1 cbr 210 ------- 0 0.0 1.0 159 159
+ 1.60375 0 1 cbr 210 ------- 0 0.0 1.0 161 161
- 1.60375 0 1 cbr 210 ------- 0 0.0 1.0 161 161
r 1.60556 0 1 cbr 210 ------- 0 0.0 1.0 160 160
+ 1.6075 0 1 cbr 210 ------- 0 0.0 1.0 162 162
- 1.6075 0 1 cbr 210 ------- 0 0.0 1.0 162 162
r 1.60931 0 1 cbr 210 ------- 0 0.0 1.0 161 161
+ 1.61125 0 1 cbr 210 ------- 0 0.0 1.0 163 163
- 1.61125 0 1 cbr 210 ------- 0 0.0 1.0 163 163
r 1.61306 0 1 cbr 210 ------- 0 0.0 1.0 162 162
+ 1.615 0 1 cbr 210 ------- 0 0.0 1.0 164 164
- 1.615 0 1 cbr 210 ------- 0 0.0 1.0 164 164
r 1.61681 0 1 cbr 210 ------- 0 0.0 1.0 163 163
+ 1.61875 0 1 cbr 210 ------- 0 0.0 1.0 165 165
- 1.61875 0 1 cbr 210 ------- 0 0.0 1.0 165 165
r 1.62056 0 1 cbr 210 ------- 0 0.0 1.0 164 164
+ 1.6225 0 1 cbr 210 ------- 0 0.0 1.0 166 166
- 1.6225 0 1 cbr 210 ------- 0 0.0 1.0 166 166
r 1.62431 0 1 cbr 210 ------- 0 0.0 1.0 165 165
+ 1.62625 0 1 cbr 210 ------- 0 0.0 1.0 167 167
- 1.62625 0 1 cbr 210 ------- 0 0.0 1.0 167 167
r 1.62806 0 1 cbr 210 ------- 0 0.0 1.0 166 166
+ 1.63 0 1 cbr 210 ------- 0 0.0 1.0 168 168
- 1.63 0 1 cbr 210 ------- 0 0.0 1.0 168 168
r 1.63181 0 1 cbr 210 ------- 0 0.0 1.0 167 167
+ 1.63375 0 1 cbr 210 ------- 0 0.0 1.0 169 169
- 1.63375 0 1 cbr 210 ------- 0 0.0 1.0 169 169
r 1.63556 0 1 cbr 210 ------- 0 0.0 1.0 168 168
+ 1.6375 0 1 cbr 210 ------- 0 0.0 1.0 170 170
- 1.6375 0 1 cbr 210 ------- 0 0.0 1.0 170 170
r 1.63931 0 1 cbr 210 ------- 0 0.0 1.0 169 169
+ 1.64125 0 1 cbr 210 ------- 0 0.0 1.0 171 171
- 1.64125 0 1 cbr 210 ------- 0 0.0 1.0 171 171
r 1.64306 0 1 cbr 210 ------- 0 0.0 1.0 170 170
+ 1.645 0 1 cbr 210 ------- 0 0.0 1.0 172 172
- 1.645 0 1 cbr 210 ------- 0 0.0 1.0 172 172
r 1.64681 0 1 cbr 210 ------- 0 0.0 1.0 171 171
+ 1.64875 0 1 cbr 210 ------- 0 0.0 1.0 173 173
- 1.64875 0 1 cbr 210 ------- 0 0.0 1.0 173 173
r 1.65056 0 1 cbr 210 ------- 0 0.0 1.0 172 172
+ 1.6525 0 1 cbr 210 ------- 0 0.0 1.0 174 174
- 1.6525 0 1 cbr 210 ------- 0 0.0 1.0 174 174
r 1.65431 0 1 cbr 210 ------- 0 0.0 1.0 173 173
+ 1.65625 0 1 cbr 210 ------- 0 0.0 1.0 175 175
- 1.65625 0 1 cbr 210 ------- 0 0.0 1.0 175 175
r 1.65806 0 1 cbr 210 ------- 0 0.0 1.0 174 174
+ 1.66 0 1 cbr 210 ------- 0 0.0 1.0 176 176
- 1.66 0 1 cbr 210 ------- 0 0.0 1.0 176 176
r 1.66181 0 1 cbr 210 ------- 0 0.0 1.0 175 175
+ 1.66375 0 1 cbr 210 ------- 0 0.0 1.0 177 177
- 1.66375 0 1 cbr 210 ------- 0 0.0 1.0 177 177
r 1.66556 0 1 cbr 210 ------- 0 0.0 1.0 176 176
+ 1.6675 0 1 cbr 210 ------- 0 0.0 1.0 178 178
- 1.6675 0 1 cbr 210 ------- 0 0.0 1.0 178 178
r 1.66931 0 1 cbr 210 ------- 0 0.0 1.0 177 177
+ 1.67125 0 1 cbr 210 ------- 0 0.0 1.0 179 179
- 1.67125 0 1 cbr 210 ------- 0 0.0 1.0 179 179
r 1.67306 0 1 cbr 210 ------- 0 0.0 1.0 178 178
+ 1.675 0 1 cbr 210 ------- 0 0.0 1.0 180 180
- 1.675 0 1 cbr 210 ------- 0 0.0 1.0 180 180
r 1.67681 0 1 cbr 210 ------- 0 0.0 1.0 179 179
+ 1.67875 0 1 cbr 210 ------- 0 0.0 1.0 181 181
- 1.67875 0 1 cbr 210 ------- 0 0.0 1.0 181 181
r 1.68056 0 1 cbr 210 ------- 0 0.0 1.0 180 180
+ 1.6825 0 1 cbr 210 ------- 0 0.0 1.0 182 182
- 1.6825 0 1 cbr 210 ------- 0 0.0 1.0 182 182
r 1.68431 0 1 cbr 210 ------- 0 0.0 1.0 181 181
+ 1.68625 0 1 cbr 210 ------- 0 0.0 1.0 183 183
- 1.68625 0 1 cbr 210 ------- 0 0.0 1.0 183 183
r 1.68806 0 1 cbr 210 ------- 0 0.0 1.0 182 182
+ 1.69 0 1 cbr 210 ------- 0 0.0 1.0 184 184
- 1.69 0 1 cbr 210 ------- 0 0.0 1.0 184 184
r 1.69181 0 1 cbr 210 ------- 0 0.0 1.0 183 183
+ 1.69375 0 1 cbr 210 ------- 0 0.0 1.0 185 185
- 1.69375 0 1 cbr 210 ------- 0 0.0 1.0 185 185
r 1.69556 0 1 cbr 210 ------- 0 0.0 1.0 184 184
+ 1.6975 0 1 cbr 210 ------- 0 0.0 1.0 186 186
- 1.6975 0 1 cbr 210 ------- 0 0.0 1.0 186 186
r 1.69931 0 1 cbr 210 ------- 0 0.0 1.0 185 185
+ 1.70125 0 1 cbr 210 ------- 0 0.0 1.0 187 187
- 1.70125 0 1 cbr 210 ------- 0 0.0 1.0 187 187
r 1.70306 0 1 cbr 210 ------- 0 0.0 1.0 186 186
+ 1.705 0 1 cbr 210 ------- 0 0.0 1.0 188 188
- 1.705 0 1 cbr 210 ------- 0 0.0 1.0 188 188
r 1.70681 0 1 cbr 210 ------- 0 0.0 1.0 187 187
+ 1.70875 0 1 cbr 210 ------- 0 0.0 1.0 189 189
- 1.70875 0 1 cbr 210 ------- 0 0.0 1.0 189 189
r 1.71056 0 1 cbr 210 ------- 0 0.0 1.0 188 188
+ 1.7125 0 1 cbr 210 ------- 0 0.0 1.0 190 190
- 1.7125 0 1 cbr 210 ------- 0 0.0 1.0 190 190
r 1.71431 0 1 cbr 210 ------- 0 0.0 1.0 189 189
+ 1.71625 0 1 cbr 210 ------- 0 0.0 1.0 191 191
- 1.71625 0 1 cbr 210 ------- 0 0.0 1.0 191 191
r 1.71806 0 1 cbr 210 ------- 0 0.0 1.0 190 190
+ 1.72 0 1 cbr 210 ------- 0 0.0 1.0 192 192
- 1.72 0 1 cbr 210 ------- 0 0.0 1.0 192 192
r 1.72181 0 1 cbr 210 ------- 0 0.0 1.0 191 191
+ 1.72375 0 1 cbr 210 ------- 0 0.0 1.0 193 193
- 1.72375 0 1 cbr 210 ------- 0 0.0 1.0 193 193
r 1.72556 0 1 cbr 210 ------- 0 0.0 1.0 192 192
+ 1.7275 0 1 cbr 210 ------- 0 0.0 1.0 194 194
- 1.7275 0 1 cbr 210 ------- 0 0.0 1.0 194 194
r 1.72931 0 1 cbr 210 ------- 0 0.0 1.0 193 193
+ 1.73125 0 1 cbr 210 ------- 0 0.0 1.0 195 195
- 1.73125 0 1 cbr 210 ------- 0 0.0 1.0 195 195
r 1.73306 0 1 cbr 210 ------- 0 0.0 1.0 194 194
+ 1.735 0 1 cbr 210 ------- 0 0.0 1.0 196 196
- 1.735 0 1 cbr 210 ------- 0 0.0 1.0 196 196
r 1.73681 0 1 cbr 210 ------- 0 0.0 1.0 195 195
+ 1.73875 0 1 cbr 210 ------- 0 0.0 1.0 197 197
- 1.73875 0 1 cbr 210 ------- 0 0.0 1.0 197 197
r 1.74056 0 1 cbr 210 ------- 0 0.0 1.0 196 196
+ 1.7425 0 1 cbr 210 ------- 0 0.0 1.0 198 198
- 1.7425 0 1 cbr 210 ------- 0 0.0 1.0 198 198
r 1.74431 0 1 cbr 210 ------- 0 0.0 1.0 197 197
+ 1.74625 0 1 cbr 210 ------- 0 0.0 1.0 199 199
- 1.74625 0 1 cbr 210 ------- 0 0.0 1.0 199 199
r 1.74806 0 1 cbr 210 ------- 0 0.0 1.0 198 198
+ 1.75 0 1 cbr 210 ------- 0 0.0 1.0 200 200
- 1.75 0 1 cbr 210 ------- 0 0.0 1.0 200 200
r 1.75181 0 1 cbr 210 ------- 0 0.0 1.0 199 199
+ 1.75375 0 1 cbr 210 ------- 0 0.0 1.0 201 201
- 1.75375 0 1 cbr 210 ------- 0 0.0 1.0 201 201
r 1.75556 0 1 cbr 210 ------- 0 0.0 1.0 200 200
+ 1.7575 0 1 cbr 210 ------- 0 0.0 1.0 202 202
- 1.7575 0 1 cbr 210 ------- 0 0.0 1.0 202 202
r 1.75931 0 1 cbr 210 ------- 0 0.0 1.0 201 201
+ 1.76125 0 1 cbr 210 ------- 0 0.0 1.0 203 203
- 1.76125 0 1 cbr 210 ------- 0 0.0 1.0 203 203
r 1.76306 0 1 cbr 210 ------- 0 0.0 1.0 202 202
+ 1.765 0 1 cbr 210 ------- 0 0.0 1.0 204 204
- 1.765 0 1 cbr 210 ------- 0 0.0 1.0 204 204
r 1.76681 0 1 cbr 210 ------- 0 0.0 1.0 203 203
+ 1.76875 0 1 cbr 210 ------- 0 0.0 1.0 205 205
- 1.76875 0 1 cbr 210 ------- 0 0.0 1.0 205 205
r 1.77056 0 1 cbr 210 ------- 0 0.0 1.0 204 204
+ 1.7725 0 1 cbr 210 ------- 0 0.0 1.0 206 206
- 1.7725 0 1 cbr 210 ------- 0 0.0 1.0 206 206
r 1.77431 0 1 cbr 210 ------- 0 0.0 1.0 205 205
+ 1.77625 0 1 cbr 210 ------- 0 0.0 1.0 207 207
- 1.77625 0 1 cbr 210 ------- 0 0.0 1.0 207 207
r 1.77806 0 1 cbr 210 ------- 0 0.0 1.0 206 206
+ 1.78 0 1 cbr 210 ------- 0 0.0 1.0 208 208
- 1.78 0 1 cbr 210 ------- 0 0.0 1.0 208 208
r 1.78181 0 1 cbr 210 ------- 0 0.0 1.0 207 207
+ 1.78375 0 1 cbr 210 ------- 0 0.0 1.0 209 209
- 1.78375 0 1 cbr 210 ------- 0 0.0 1.0 209 209
r 1.78556 0 1 cbr 210 ------- 0 0.0 1.0 208 208
+ 1.7875 0 1 cbr 210 ------- 0 0.0 1.0 210 210
- 1.7875 0 1 cbr 210 ------- 0 0.0 1.0 210 210
r 1.78931 0 1 cbr 210 ------- 0 0.0 1.0 209 209
+ 1.79125 0 1 cbr 210 ------- 0 0.0 1.0 211 211
- 1.79125 0 1 cbr 210 ------- 0 0.0 1.0 211 211
r 1.79306 0 1 cbr 210 ------- 0 0.0 1.0 210 210
+ 1.795 0 1 cbr 210 ------- 0 0.0 1.0 212 212
- 1.795 0 1 cbr 210 ------- 0 0.0 1.0 212 212
r 1.79681 0 1 cbr 210 ------- 0 0.0 1.0 211 211
+ 1.79875 0 1 cbr 210 ------- 0 0.0 1.0 213 213
- 1.79875 0 1 cbr 210 ------- 0 0.0 1.0 213 213
r 1.80056 0 1 cbr 210 ------- 0 0.0 1.0 212 212
+ 1.8025 0 1 cbr 210 ------- 0 0.0 1.0 214 214
- 1.8025 0 1 cbr 210 ------- 0 0.0 1.0 214 214
r 1.80431 0 1 cbr 210 ------- 0 0.0 1.0 213 213
+ 1.80625 0 1 cbr 210 ------- 0 0.0 1.0 215 215
- 1.80625 0 1 cbr 210 ------- 0 0.0 1.0 215 215