s -t 1.000000000 -Hs 0 -Hd -2 -Ni 0 -Nx 10.00 -Ny 100.00 -Nz 0.00 -Ne -1.000000 -Nl AGT -Nw --- -Ma 0 -Md 0 -Ms 0 -Mt 0 -Is 0.0 -Id 3.0 -It cbr -Il 512 -If 0 -Ii 0 -Iv 32 -Pn cbr -Pi 0 -Pf 0 -Po 0 
r -t 1.000000000 -Hs 0 -Hd -2 -Ni 0 -Nx 10.00 -Ny 100.00 -Nz 0.00 -Ne -1.000000 -Nl RTR -Nw --- -Ma 0 -Md 0 -Ms 0 -Mt 0 -Is 0.0 -Id 3.0 -It cbr -Il 512 -If 0 -Ii 0 -Iv 32 -Pn cbr -Pi 0 -Pf 0 -Po 0 
s -t 1.000000000 -Hs 1 -Hd -2 -Ni 1 -Nx 10.00 -Ny 200.00 -Nz 0.00 -Ne -1.000000 -Nl AGT -Nw --- -Ma 0 -Md 0 -Ms 0 -Mt 0 -Is 1.0 -Id 3.0 -It cbr -Il 512 -If 1 -Ii 1 -Iv 32 -Pn cbr -Pi 0 -Pf 0 -Po 0 
r -t 1.000000000 -Hs 1 -Hd -2 -Ni 1 -Nx 10.00 -Ny 200.00 -Nz 0.00 -Ne -1.000000 -Nl RTR -Nw --- -Ma 0 -Md 0 -Ms 0 -Mt 0 -Is 1.0 -Id 3.0 -It cbr -Il 512 -If 1 -Ii 1 -Iv 32 -Pn cbr -Pi 0 -Pf 0 -Po 0 
s -t 1.000000000 -Hs 0 -Hd -2 -Ni 0 -Nx 10.00 -Ny 100.00 -Nz 0.00 -Ne -1.000000 -Nl RTR -Nw --- -Ma 0 -Md 0 -Ms 0 -Mt 0 -Is 0.255 -Id -1.255 -It AODV -Il 48 -If 0 -Ii 0 -Iv 30 -P aodv -Pt 0x2 -Ph 1 -Pb 1 -Pd 3 -Pds 0 -Ps 0 -Pss 4 -Pc REQUEST 
s -t 1.000000000 -Hs 1 -Hd -2 -Ni 1 -Nx 10.00 -Ny 200.00 -Nz 0.00 -Ne -1.000000 -Nl RTR -Nw --- -Ma 0 -Md 0 -Ms 0 -Mt 0 -Is 1.255 -Id -1.255 -It AODV -Il 48 -If 0 -Ii 0 -Iv 30 -P aodv -Pt 0x2 -Ph 1 -Pb 1 -Pd 3 -Pds 0 -Ps 1 -Pss 4 -Pc REQUEST 
s -t 1.000115000 -Hs 1 -Hd -2 -Ni 1 -Nx 10.00 -Ny 200.00 -Nz 0.00 -Ne -1.000000 -Nl MAC -Nw --- -Ma 0 -Md ffffffff -Ms 1 -Mt 800 -Is 1.255 -Id -1.255 -It AODV -Il 106 -If 0 -Ii 0 -Iv 30 -P aodv -Pt 0x2 -Ph 1 -Pb 1 -Pd 3 -Pds 0 -Ps 1 -Pss 4 -Pc REQUEST 
r -t 1.000963333 -Hs 0 -Hd -2 -Ni 0 -Nx 10.00 -Ny 100.00 -Nz 0.00 -Ne -1.000000 -Nl MAC -Nw --- -Ma 0 -Md ffffffff -Ms 1 -Mt 800 -Is 1.255 -Id -1.255 -It AODV -Il 48 -If 0 -Ii 0 -Iv 30 -P aodv -Pt 0x2 -Ph 1 -Pb 1 -Pd 3 -Pds 0 -Ps 1 -Pss 4 -Pc REQUEST 
r -t 1.000963687 -Hs 2 -Hd -2 -Ni 2 -Nx 210.00 -Ny 150.00 -Nz 0.00 -Ne -1.000000 -Nl MAC -Nw --- -Ma 0 -Md ffffffff -Ms 1 -Mt 800 -Is 1.255 -Id -1.255 -It AODV -Il 48 -If 0 -Ii 0 -Iv 30 -P aodv -Pt 0x2 -Ph 1 -Pb 1 -Pd 3 -Pds 0 -Ps 1 -Pss 4 -Pc REQUEST 
r -t 1.000988333 -Hs 0 -Hd -2 -Ni 0 -Nx 10.00 -Ny 100.00 -Nz 0.00 -Ne -1.000000 -Nl RTR -Nw --- -Ma 0 -Md ffffffff -Ms 1 -Mt 800 -Is 1.255 -Id -1.255 -It AODV -Il 48 -If 0 -Ii 0 -Iv 30 -P aodv -Pt 0x2 -Ph 1 -Pb 1 -Pd 3 -Pds 0 -Ps 1 -Pss 4 -Pc REQUEST 
r -t 1.000988687 -Hs 2 -Hd -2 -Ni 2 -Nx 210.00 -Ny 150.00 -Nz 0.00 -Ne -1.000000 -Nl RTR -Nw --- -Ma 0 -Md ffffffff -Ms 1 -Mt 800 -Is 1.255 -Id -1.255 -It AODV -Il 48 -If 0 -Ii 0 -Iv 30 -P aodv -Pt 0x2 -Ph 1 -Pb 1 -Pd 3 -Pds 0 -Ps 1 -Pss 4 -Pc REQUEST 
s -t 1.001433333 -Hs 0 -Hd -2 -Ni 0 -Nx 10.00 -Ny 100.00 -Nz 0.00 -Ne -1.000000 -Nl MAC -Nw --- -Ma 0 -Md ffffffff -Ms 0 -Mt 800 -Is 0.255 -Id -1.255 -It AODV -Il 106 -If 0 -Ii 0 -Iv 30 -P aodv -Pt 0x2 -Ph 1 -Pb 1 -Pd 3 -Pds 0 -Ps 0 -Pss 4 -Pc REQUEST 
s -t 1.001869560 -Hs 0 -Hd -2 -Ni 0 -Nx 10.00 -Ny 100.00 -Nz 0.00 -Ne -1.000000 -Nl RTR -Nw --- -Ma 0 -Md ffffffff -Ms 1 -Mt 800 -Is 0.255 -Id -1.255 -It AODV -Il 48 -If 0 -Ii 0 -Iv 29 -P aodv -Pt 0x2 -Ph 2 -Pb 1 -Pd 3 -Pds 0 -Ps 1 -Pss 4 -Pc REQUEST 
r -t 1.002281667 -Hs 1 -Hd -2 -Ni 1 -Nx 10.00 -Ny 200.00 -Nz 0.00 -Ne -1.000000 -Nl MAC -Nw --- -Ma 0 -Md ffffffff -Ms 0 -Mt 800 -Is 0.255 -Id -1.255 -It AODV -Il 48 -If 0 -Ii 0 -Iv 30 -P aodv -Pt 0x2 -Ph 1 -Pb 1 -Pd 3 -Pds 0 -Ps 0 -Pss 4 -Pc REQUEST 
r -t 1.002282021 -Hs 2 -Hd -2 -Ni 2 -Nx 210.00 -Ny 150.00 -Nz 0.00 -Ne -1.000000 -Nl MAC -Nw --- -Ma 0 -Md ffffffff -Ms 0 -Mt 800 -Is 0.255 -Id -1.255 -It AODV -Il 48 -If 0 -Ii 0 -Iv 30 -P aodv -Pt 0x2 -Ph 1 -Pb 1 -Pd 3 -Pds 0 -Ps 0 -Pss 4 -Pc REQUEST 
r -t 1.002306667 -Hs 1 -Hd -2 -Ni 1 -Nx 10.00 -Ny 200.00 -Nz 0.00 -Ne -1.000000 -Nl RTR -Nw --- -Ma 0 -Md ffffffff -Ms 0 -Mt 800 -Is 0.255 -Id -1.255 -It AODV -Il 48 -If 0 -Ii 0 -Iv 30 -P aodv -Pt 0x2 -Ph 1 -Pb 1 -Pd 3 -Pds 0 -Ps 0 -Pss 4 -Pc REQUEST 
r -t 1.002307021 -Hs 2 -Hd -2 -Ni 2 -Nx 210.00 -Ny 150.00 -Nz 0.00 -Ne -1.000000 -Nl RTR -Nw --- -Ma 0 -Md ffffffff -Ms 0 -Mt 800 -Is 0.255 -Id -1.255 -It AODV -Il 48 -If 0 -Ii 0 -Iv 30 -P aodv -Pt 0x2 -Ph 1 -Pb 1 -Pd 3 -Pds 0 -Ps 0 -Pss 4 -Pc REQUEST 
s -t 1.002331333 -Hs 0 -Hd -2 -Ni 0 -Nx 10.00 -Ny 100.00 -Nz 0.00 -Ne -1.000000 -Nl MAC -Nw --- -Ma 0 -Md ffffffff -Ms 0 -Mt 800 -Is 0.255 -Id -1.255 -It AODV -Il 106 -If 0 -Ii 0 -Iv 29 -P aodv -Pt 0x2 -Ph 2 -Pb 1 -Pd 3 -Pds 0 -Ps 1 -Pss 4 -Pc REQUEST 
r -t 1.003179667 -Hs 1 -Hd -2 -Ni 1 -Nx 10.00 -Ny 200.00 -Nz 0.00 -Ne -1.000000 -Nl MAC -Nw --- -Ma 0 -Md ffffffff -Ms 0 -Mt 800 -Is 0.255 -Id -1.255 -It AODV -Il 48 -If 0 -Ii 0 -Iv 29 -P aodv -Pt 0x2 -Ph 2 -Pb 1 -Pd 3 -Pds 0 -Ps 1 -Pss 4 -Pc REQUEST 
r -t 1.003180021 -Hs 2 -Hd -2 -Ni 2 -Nx 210.00 -Ny 150.00 -Nz 0.00 -Ne -1.000000 -Nl MAC -Nw --- -Ma 0 -Md ffffffff -Ms 0 -Mt 800 -Is 0.255 -Id -1.255 -It AODV -Il 48 -If 0 -Ii 0 -Iv 29 -P aodv -Pt 0x2 -Ph 2 -Pb 1 -Pd 3 -Pds 0 -Ps 1 -Pss 4 -Pc REQUEST 
r -t 1.003204667 -Hs 1 -Hd -2 -Ni 1 -Nx 10.00 -Ny 200.00 -Nz 0.00 -Ne -1.000000 -Nl RTR -Nw --- -Ma 0 -Md ffffffff -Ms 0 -Mt 800 -Is 0.255 -Id -1.255 -It AODV -Il 48 -If 0 -Ii 0 -Iv 29 -P aodv -Pt 0x2 -Ph 2 -Pb 1 -Pd 3 -Pds 0 -Ps 1 -Pss 4 -Pc REQUEST 
r -t 1.003205021 -Hs 2 -Hd -2 -Ni 2 -Nx 210.00 -Ny 150.00 -Nz 0.00 -Ne -1.000000 -Nl RTR -Nw --- -Ma 0 -Md ffffffff -Ms 0 -Mt 800 -Is 0.255 -Id -1.255 -It AODV -Il 48 -If 0 -Ii 0 -Iv 29 -P aodv -Pt 0x2 -Ph 2 -Pb 1 -Pd 3 -Pds 0 -Ps 1 -Pss 4 -Pc REQUEST 
s -t 1.005400421 -Hs 2 -Hd -2 -Ni 2 -Nx 210.00 -Ny 150.00 -Nz 0.00 -Ne -1.000000 -Nl RTR -Nw --- -Ma 0 -Md ffffffff -Ms 1 -Mt 800 -Is 2.255 -Id -1.255 -It AODV -Il 48 -If 0 -Ii 0 -Iv 29 -P aodv -Pt 0x2 -Ph 2 -Pb 1 -Pd 3 -Pds 0 -Ps 1 -Pss 4 -Pc REQUEST 
s -t 1.005436284 -Hs 1 -Hd -2 -Ni 1 -Nx 10.00 -Ny 200.00 -Nz 0.00 -Ne -1.000000 -Nl RTR -Nw --- -Ma 0 -Md ffffffff -Ms 0 -Mt 800 -Is 1.255 -Id -1.255 -It AODV -Il 48 -If 0 -Ii 0 -Iv 29 -P aodv -Pt 0x2 -Ph 2 -Pb 1 -Pd 3 -Pds 0 -Ps 0 -Pss 4 -Pc REQUEST 
s -t 1.005771284 -Hs 1 -Hd -2 -Ni 1 -Nx 10.00 -Ny 200.00 -Nz 0.00 -Ne -1.000000 -Nl MAC -Nw --- -Ma 0 -Md ffffffff -Ms 1 -Mt 800 -Is 1.255 -Id -1.255 -It AODV -Il 106 -If 0 -Ii 0 -Iv 29 -P aodv -Pt 0x2 -Ph 2 -Pb 1 -Pd 3 -Pds 0 -Ps 0 -Pss 4 -Pc REQUEST 
r -t 1.006619618 -Hs 0 -Hd -2 -Ni 0 -Nx 10.00 -Ny 100.00 -Nz 0.00 -Ne -1.000000 -Nl MAC -Nw --- -Ma 0 -Md ffffffff -Ms 1 -Mt 800 -Is 1.255 -Id -1.255 -It AODV -Il 48 -If 0 -Ii 0 -Iv 29 -P aodv -Pt 0x2 -Ph 2 -Pb 1 -Pd 3 -Pds 0 -Ps 0 -Pss 4 -Pc REQUEST 
r -t 1.006619972 -Hs 2 -Hd -2 -Ni 2 -Nx 210.00 -Ny 150.00 -Nz 0.00 -Ne -1.000000 -Nl MAC -Nw --- -Ma 0 -Md ffffffff -Ms 1 -Mt 800 -Is 1.255 -Id -1.255 -It AODV -Il 48 -If 0 -Ii 0 -Iv 29 -P aodv -Pt 0x2 -Ph 2 -Pb 1 -Pd 3 -Pds 0 -Ps 0 -Pss 4 -Pc REQUEST 
r -t 1.006644618 -Hs 0 -Hd -2 -Ni 0 -Nx 10.00 -Ny 100.00 -Nz 0.00 -Ne -1.000000 -Nl RTR -Nw --- -Ma 0 -Md ffffffff -Ms 1 -Mt 800 -Is 1.255 -Id -1.255 -It AODV -Il 48 -If 0 -Ii 0 -Iv 29 -P aodv -Pt 0x2 -Ph 2 -Pb 1 -Pd 3 -Pds 0 -Ps 0 -Pss 4 -Pc REQUEST 
r -t 1.006644972 -Hs 2 -Hd -2 -Ni 2 -Nx 210.00 -Ny 150.00 -Nz 0.00 -Ne -1.000000 -Nl RTR -Nw --- -Ma 0 -Md ffffffff -Ms 1 -Mt 800 -Is 1.255 -Id -1.255 -It AODV -Il 48 -If 0 -Ii 0 -Iv 29 -P aodv -Pt 0x2 -Ph 2 -Pb 1 -Pd 3 -Pds 0 -Ps 0 -Pss 4 -Pc REQUEST 
s -t 1.006749972 -Hs 2 -Hd -2 -Ni 2 -Nx 210.00 -Ny 150.00 -Nz 0.00 -Ne -1.000000 -Nl MAC -Nw --- -Ma 0 -Md ffffffff -Ms 2 -Mt 800 -Is 2.255 -Id -1.255 -It AODV -Il 106 -If 0 -Ii 0 -Iv 29 -P aodv -Pt 0x2 -Ph 2 -Pb 1 -Pd 3 -Pds 0 -Ps 1 -Pss 4 -Pc REQUEST 
r -t 1.007598272 -Hs 3 -Hd -2 -Ni 3 -Nx 300.00 -Ny 150.00 -Nz 0.00 -Ne -1.000000 -Nl MAC -Nw --- -Ma 0 -Md ffffffff -Ms 2 -Mt 800 -Is 2.255 -Id -1.255 -It AODV -Il 48 -If 0 -Ii 0 -Iv 29 -P aodv -Pt 0x2 -Ph 2 -Pb 1 -Pd 3 -Pds 0 -Ps 1 -Pss 4 -Pc REQUEST 
r -t 1.007598659 -Hs 1 -Hd -2 -Ni 1 -Nx 10.00 -Ny 200.00 -Nz 0.00 -Ne -1.000000 -Nl MAC -Nw --- -Ma 0 -Md ffffffff -Ms 2 -Mt 800 -Is 2.255 -Id -1.255 -It AODV -Il 48 -If 0 -Ii 0 -Iv 29 -P aodv -Pt 0x2 -Ph 2 -Pb 1 -Pd 3 -Pds 0 -Ps 1 -Pss 4 -Pc REQUEST 
r -t 1.007598659 -Hs 0 -Hd -2 -Ni 0 -Nx 10.00 -Ny 100.00 -Nz 0.00 -Ne -1.000000 -Nl MAC -Nw --- -Ma 0 -Md ffffffff -Ms 2 -Mt 800 -Is 2.255 -Id -1.255 -It AODV -Il 48 -If 0 -Ii 0 -Iv 29 -P aodv -Pt 0x2 -Ph 2 -Pb 1 -Pd 3 -Pds 0 -Ps 1 -Pss 4 -Pc REQUEST 
r -t 1.007623272 -Hs 3 -Hd -2 -Ni 3 -Nx 300.00 -Ny 150.00 -Nz 0.00 -Ne -1.000000 -Nl RTR -Nw --- -Ma 0 -Md ffffffff -Ms 2 -Mt 800 -Is 2.255 -Id -1.255 -It AODV -Il 48 -If 0 -Ii 0 -Iv 29 -P aodv -Pt 0x2 -Ph 2 -Pb 1 -Pd 3 -Pds 0 -Ps 1 -Pss 4 -Pc REQUEST 
s -t 1.007623272 -Hs 3 -Hd 2 -Ni 3 -Nx 300.00 -Ny 150.00 -Nz 0.00 -Ne -1.000000 -Nl RTR -Nw --- -Ma 0 -Md 0 -Ms 0 -Mt 0 -Is 3.255 -Id 1.255 -It AODV -Il 44 -If 0 -Ii 0 -Iv 30 -P aodv -Pt 0x4 -Ph 1 -Pd 3 -Pds 4 -Pl 10.000000 -Pc REPLY 
r -t 1.007623659 -Hs 1 -Hd -2 -Ni 1 -Nx 10.00 -Ny 200.00 -Nz 0.00 -Ne -1.000000 -Nl RTR -Nw --- -Ma 0 -Md ffffffff -Ms 2 -Mt 800 -Is 2.255 -Id -1.255 -It AODV -Il 48 -If 0 -Ii 0 -Iv 29 -P aodv -Pt 0x2 -Ph 2 -Pb 1 -Pd 3 -Pds 0 -Ps 1 -Pss 4 -Pc REQUEST 
r -t 1.007623659 -Hs 0 -Hd -2 -Ni 0 -Nx 10.00 -Ny 100.00 -Nz 0.00 -Ne -1.000000 -Nl RTR -Nw --- -Ma 0 -Md ffffffff -Ms 2 -Mt 800 -Is 2.255 -Id -1.255 -It AODV -Il 48 -If 0 -Ii 0 -Iv 29 -P aodv -Pt 0x2 -Ph 2 -Pb 1 -Pd 3 -Pds 0 -Ps 1 -Pss 4 -Pc REQUEST 
s -t 1.008218272 -Hs 3 -Hd -2 -Ni 3 -Nx 300.00 -Ny 150.00 -Nz 0.00 -Ne -1.000000 -Nl MAC -Nw --- -Ma 0 -Md ffffffff -Ms 3 -Mt 806 -P arp -Po REQUEST -Pms 3 -Ps 3 -Pmd 0 -Pd 2 
r -t 1.008906572 -Hs 2 -Hd -2 -Ni 2 -Nx 210.00 -Ny 150.00 -Nz 0.00 -Ne -1.000000 -Nl MAC -Nw --- -Ma 0 -Md ffffffff -Ms 3 -Mt 806 -P arp -Po REQUEST -Pms 3 -Ps 3 -Pmd 0 -Pd 2 
s -t 1.009321572 -Hs 2 -Hd -2 -Ni 2 -Nx 210.00 -Ny 150.00 -Nz 0.00 -Ne -1.000000 -Nl MAC -Nw --- -Ma 52e -Md 3 -Ms 2 -Mt 0 
r -t 1.009673872 -Hs 3 -Hd -2 -Ni 3 -Nx 300.00 -Ny 150.00 -Nz 0.00 -Ne -1.000000 -Nl MAC -Nw --- -Ma 52e -Md 3 -Ms 2 -Mt 0 
s -t 1.009683872 -Hs 3 -Hd -2 -Ni 3 -Nx 300.00 -Ny 150.00 -Nz 0.00 -Ne -1.000000 -Nl MAC -Nw --- -Ma 3f4 -Md 2 -Ms 0 -Mt 0 
r -t 1.009988172 -Hs 2 -Hd -2 -Ni 2 -Nx 210.00 -Ny 150.00 -Nz 0.00 -Ne -1.000000 -Nl MAC -Nw --- -Ma 3f4 -Md 2 -Ms 0 -Mt 0 
s -t 1.009998172 -Hs 2 -Hd -2 -Ni 2 -Nx 210.00 -Ny 150.00 -Nz 0.00 -Ne -1.000000 -Nl MAC -Nw --- -Ma 13a -Md 3 -Ms 2 -Mt 806 -P arp -Po REPLY -Pms 2 -Ps 2 -Pmd 3 -Pd 3 
s -t 1.010471781 -Hs 2 -Hd -2 -Ni 2 -Nx 210.00 -Ny 150.00 -Nz 0.00 -Ne -1.000000 -Nl RTR -Nw --- -Ma 0 -Md ffffffff -Ms 0 -Mt 800 -Is 2.255 -Id -1.255 -It AODV -Il 48 -If 0 -Ii 0 -Iv 29 -P aodv -Pt 0x2 -Ph 2 -Pb 1 -Pd 3 -Pds 0 -Ps 0 -Pss 4 -Pc REQUEST 
r -t 1.010686472 -Hs 3 -Hd -2 -Ni 3 -Nx 300.00 -Ny 150.00 -Nz 0.00 -Ne -1.000000 -Nl MAC -Nw --- -Ma 13a -Md 3 -Ms 2 -Mt 806 -P arp -Po REPLY -Pms 2 -Ps 2 -Pmd 3 -Pd 3 
s -t 1.010696472 -Hs 3 -Hd -2 -Ni 3 -Nx 300.00 -Ny 150.00 -Nz 0.00 -Ne -1.000000 -Nl MAC -Nw --- -Ma 0 -Md 2 -Ms 0 -Mt 0 
r -t 1.011000772 -Hs 2 -Hd -2 -Ni 2 -Nx 210.00 -Ny 150.00 -Nz 0.00 -Ne -1.000000 -Nl MAC -Nw --- -Ma 0 -Md 2 -Ms 0 -Mt 0 
s -t 1.011210772 -Hs 2 -Hd -2 -Ni 2 -Nx 210.00 -Ny 150.00 -Nz 0.00 -Ne -1.000000 -Nl MAC -Nw --- -Ma 0 -Md ffffffff -Ms 2 -Mt 800 -Is 2.255 -Id -1.255 -It AODV -Il 106 -If 0 -Ii 0 -Iv 29 -P aodv -Pt 0x2 -Ph 2 -Pb 1 -Pd 3 -Pds 0 -Ps 0 -Pss 4 -Pc REQUEST 
r -t 1.012059072 -Hs 3 -Hd -2 -Ni 3 -Nx 300.00 -Ny 150.00 -Nz 0.00 -Ne -1.000000 -Nl MAC -Nw --- -Ma 0 -Md ffffffff -Ms 2 -Mt 800 -Is 2.255 -Id -1.255 -It AODV -Il 48 -If 0 -Ii 0 -Iv 29 -P aodv -Pt 0x2 -Ph 2 -Pb 1 -Pd 3 -Pds 0 -Ps 0 -Pss 4 -Pc REQUEST 
r -t 1.012059459 -Hs 1 -Hd -2 -Ni 1 -Nx 10.00 -Ny 200.00 -Nz 0.00 -Ne -1.000000 -Nl MAC -Nw --- -Ma 0 -Md ffffffff -Ms 2 -Mt 800 -Is 2.255 -Id -1.255 -It AODV -Il 48 -If 0 -Ii 0 -Iv 29 -P aodv -Pt 0x2 -Ph 2 -Pb 1 -Pd 3 -Pds 0 -Ps 0 -Pss 4 -Pc REQUEST 
r -t 1.012059459 -Hs 0 -Hd -2 -Ni 0 -Nx 10.00 -Ny 100.00 -Nz 0.00 -Ne -1.000000 -Nl MAC -Nw --- -Ma 0 -Md ffffffff -Ms 2 -Mt 800 -Is 2.255 -Id -1.255 -It AODV -Il 48 -If 0 -Ii 0 -Iv 29 -P aodv -Pt 0x2 -Ph 2 -Pb 1 -Pd 3 -Pds 0 -Ps 0 -Pss 4 -Pc REQUEST 
r -t 1.012084072 -Hs 3 -Hd -2 -Ni 3 -Nx 300.00 -Ny 150.00 -Nz 0.00 -Ne -1.000000 -Nl RTR -Nw --- -Ma 0 -Md ffffffff -Ms 2 -Mt 800 -Is 2.255 -Id -1.255 -It AODV -Il 48 -If 0 -Ii 0 -Iv 29 -P aodv -Pt 0x2 -Ph 2 -Pb 1 -Pd 3 -Pds 0 -Ps 0 -Pss 4 -Pc REQUEST 
s -t 1.012084072 -Hs 3 -Hd 2 -Ni 3 -Nx 300.00 -Ny 150.00 -Nz 0.00 -Ne -1.000000 -Nl RTR -Nw --- -Ma 0 -Md 0 -Ms 0 -Mt 0 -Is 3.255 -Id 0.255 -It AODV -Il 44 -If 0 -Ii 0 -Iv 30 -P aodv -Pt 0x4 -Ph 1 -Pd 3 -Pds 6 -Pl 10.000000 -Pc REPLY 
r -t 1.012084459 -Hs 1 -Hd -2 -Ni 1 -Nx 10.00 -Ny 200.00 -Nz 0.00 -Ne -1.000000 -Nl RTR -Nw --- -Ma 0 -Md ffffffff -Ms 2 -Mt 800 -Is 2.255 -Id -1.255 -It AODV -Il 48 -If 0 -Ii 0 -Iv 29 -P aodv -Pt 0x2 -Ph 2 -Pb 1 -Pd 3 -Pds 0 -Ps 0 -Pss 4 -Pc REQUEST 
r -t 1.012084459 -Hs 0 -Hd -2 -Ni 0 -Nx 10.00 -Ny 100.00 -Nz 0.00 -Ne -1.000000 -Nl RTR -Nw --- -Ma 0 -Md ffffffff -Ms 2 -Mt 800 -Is 2.255 -Id -1.255 -It AODV -Il 48 -If 0 -Ii 0 -Iv 29 -P aodv -Pt 0x2 -Ph 2 -Pb 1 -Pd 3 -Pds 0 -Ps 0 -Pss 4 -Pc REQUEST 
s -t 1.012189072 -Hs 3 -Hd -2 -Ni 3 -Nx 300.00 -Ny 150.00 -Nz 0.00 -Ne -1.000000 -Nl MAC -Nw --- -Ma 5ae -Md 2 -Ms 3 -Mt 0 
r -t 1.012541372 -Hs 2 -Hd -2 -Ni 2 -Nx 210.00 -Ny 150.00 -Nz 0.00 -Ne -1.000000 -Nl MAC -Nw --- -Ma 5ae -Md 2 -Ms 3 -Mt 0 
s -t 1.012551372 -Hs 2 -Hd -2 -Ni 2 -Nx 210.00 -Ny 150.00 -Nz 0.00 -Ne -1.000000 -Nl MAC -Nw --- -Ma 474 -Md 3 -Ms 0 -Mt 0 
r -t 1.012855672 -Hs 3 -Hd -2 -Ni 3 -Nx 300.00 -Ny 150.00 -Nz 0.00 -Ne -1.000000 -Nl MAC -Nw --- -Ma 474 -Md 3 -Ms 0 -Mt 0 
s -t 1.012865672 -Hs 3 -Hd 2 -Ni 3 -Nx 300.00 -Ny 150.00 -Nz 0.00 -Ne -1.000000 -Nl MAC -Nw --- -Ma 13a -Md 2 -Ms 3 -Mt 800 -Is 3.255 -Id 1.255 -It AODV -Il 102 -If 0 -Ii 0 -Iv 30 -P aodv -Pt 0x4 -Ph 1 -Pd 3 -Pds 4 -Pl 10.000000 -Pc REPLY 
r -t 1.013681972 -Hs 2 -Hd 2 -Ni 2 -Nx 210.00 -Ny 150.00 -Nz 0.00 -Ne -1.000000 -Nl MAC -Nw --- -Ma 13a -Md 2 -Ms 3 -Mt 800 -Is 3.255 -Id 1.255 -It AODV -Il 44 -If 0 -Ii 0 -Iv 30 -P aodv -Pt 0x4 -Ph 1 -Pd 3 -Pds 4 -Pl 10.000000 -Pc REPLY 
s -t 1.013691972 -Hs 2 -Hd -2 -Ni 2 -Nx 210.00 -Ny 150.00 -Nz 0.00 -Ne -1.000000 -Nl MAC -Nw --- -Ma 0 -Md 3 -Ms 0 -Mt 0 
r -t 1.013706972 -Hs 2 -Hd 2 -Ni 2 -Nx 210.00 -Ny 150.00 -Nz 0.00 -Ne -1.000000 -Nl RTR -Nw --- -Ma 13a -Md 2 -Ms 3 -Mt 800 -Is 3.255 -Id 1.255 -It AODV -Il 44 -If 0 -Ii 0 -Iv 30 -P aodv -Pt 0x4 -Ph 1 -Pd 3 -Pds 4 -Pl 10.000000 -Pc REPLY 
f -t 1.013706972 -Hs 2 -Hd 1 -Ni 2 -Nx 210.00 -Ny 150.00 -Nz 0.00 -Ne -1.000000 -Nl RTR -Nw --- -Ma 13a -Md 2 -Ms 3 -Mt 800 -Is 3.255 -Id 1.255 -It AODV -Il 44 -If 0 -Ii 0 -Iv 29 -P aodv -Pt 0x4 -Ph 2 -Pd 3 -Pds 4 -Pl 10.000000 -Pc REPLY 
r -t 1.013996272 -Hs 3 -Hd -2 -Ni 3 -Nx 300.00 -Ny 150.00 -Nz 0.00 -Ne -1.000000 -Nl MAC -Nw --- -Ma 0 -Md 3 -Ms 0 -Mt 0 
s -t 1.014386272 -Hs 3 -Hd -2 -Ni 3 -Nx 300.00 -Ny 150.00 -Nz 0.00 -Ne -1.000000 -Nl MAC -Nw --- -Ma 5ae -Md 2 -Ms 3 -Mt 0 
r -t 1.0f14738572 -Hs 2 -Hd -2 -Ni 2 -Nx 210.00 -Ny 150.00 -Nz 0.00 -Ne -1.000000 -Nl MAC -Nw --- -Ma 5ae -Md 2 -Ms 3 -Mt 0 
s -t 1.014748572 -Hs 2 -Hd -2 -Ni 2 -Nx 210.00 -Ny 150.00 -Nz 0.00 -Ne -1.000000 -Nl MAC -Nw --- -Ma 474 -Md 3 -Ms 0 -Mt 0 
r -t 1.015052872 -Hs 3 -Hd -2 -Ni 3 -Nx 300.00 -Ny 150.00 -Nz 0.00 -Ne -1.000000 -Nl MAC -Nw --- -Ma 474 -Md 3 -Ms 0 -Mt 0 
s -t 1.015062872 -Hs 3 -Hd 2 -Ni 3 -Nx 300.00 -Ny 150.00 -Nz 0.00 -Ne -1.000000 -Nl MAC -Nw --- -Ma 13a -Md 2 -Ms 3 -Mt 800 -Is 3.255 -Id 0.255 -It AODV -Il 102 -If 0 -Ii 0 -Iv 30 -P aodv -Pt 0x4 -Ph 1 -Pd 3 -Pds 6 -Pl 10.000000 -Pc REPLY 
r -t 1.015879172 -Hs 2 -Hd 2 -Ni 2 -Nx 210.00 -Ny 150.00 -Nz 0.00 -Ne -1.000000 -Nl MAC -Nw --- -Ma 13a -Md 2 -Ms 3 -Mt 800 -Is 3.255 -Id 0.255 -It AODV -Il 44 -If 0 -Ii 0 -Iv 30 -P aodv -Pt 0x4 -Ph 1 -Pd 3 -Pds 6 -Pl 10.000000 -Pc REPLY 
s -t 1.015889172 -Hs 2 -Hd -2 -Ni 2 -Nx 210.00 -Ny 150.00 -Nz 0.00 -Ne -1.000000 -Nl MAC -Nw --- -Ma 0 -Md 3 -Ms 0 -Mt 0 
r -t 1.015904172 -Hs 2 -Hd 2 -Ni 2 -Nx 210.00 -Ny 150.00 -Nz 0.00 -Ne -1.000000 -Nl RTR -Nw --- -Ma 13a -Md 2 -Ms 3 -Mt 800 -Is 3.255 -Id 0.255 -It AODV -Il 44 -If 0 -Ii 0 -Iv 30 -P aodv -Pt 0x4 -Ph 1 -Pd 3 -Pds 6 -Pl 10.000000 -Pc REPLY 
f -t 1.015904172 -Hs 2 -Hd 0 -Ni 2 -Nx 210.00 -Ny 150.00 -Nz 0.00 -Ne -1.000000 -Nl RTR -Nw --- -Ma 13a -Md 2 -Ms 3 -Mt 800 -Is 3.255 -Id 0.255 -It AODV -Il 44 -If 0 -Ii 0 -Iv 29 -P aodv -Pt 0x4 -Ph 2 -Pd 3 -Pds 6 -Pl 10.000000 -Pc REPLY 
r -t 1.016193472 -Hs 3 -Hd -2 -Ni 3 -Nx 300.00 -Ny 150.00 -Nz 0.00 -Ne -1.000000 -Nl MAC -Nw --- -Ma 0 -Md 3 -Ms 0 -Mt 0 
s -t 1.016303172 -Hs 2 -Hd -2 -Ni 2 -Nx 210.00 -Ny 150.00 -Nz 0.00 -Ne -1.000000 -Nl MAC -Nw --- -Ma 0 -Md ffffffff -Ms 2 -Mt 806 -P arp -Po REQUEST -Pms 2 -Ps 2 -Pmd 0 -Pd 1 
r -t 1.016991472 -Hs 3 -Hd -2 -Ni 3 -Nx 300.00 -Ny 150.00 -Nz 0.00 -Ne -1.000000 -Nl MAC -Nw --- -Ma 0 -Md ffffffff -Ms 2 -Mt 806 -P arp -Po REQUEST -Pms 2 -Ps 2 -Pmd 0 -Pd 1 
r -t 1.016991859 -Hs 1 -Hd -2 -Ni 1 -Nx 10.00 -Ny 200.00 -Nz 0.00 -Ne -1.000000 -Nl MAC -Nw --- -Ma 0 -Md ffffffff -Ms 2 -Mt 806 -P arp -Po REQUEST -Pms 2 -Ps 2 -Pmd 0 -Pd 1 
r -t 1.016991859 -Hs 0 -Hd -2 -Ni 0 -Nx 10.00 -Ny 100.00 -Nz 0.00 -Ne -1.000000 -Nl MAC -Nw --- -Ma 0 -Md ffffffff -Ms 2 -Mt 806 -P arp -Po REQUEST -Pms 2 -Ps 2 -Pmd 0 -Pd 1 
s -t 1.017241172 -Hs 2 -Hd -2 -Ni 2 -Nx 210.00 -Ny 150.00 -Nz 0.00 -Ne -1.000000 -Nl MAC -Nw --- -Ma 0 -Md ffffffff -Ms 2 -Mt 806 -P arp -Po REQUEST -Pms 2 -Ps 2 -Pmd 0 -Pd 0 
r -t 1.017929472 -Hs 3 -Hd -2 -Ni 3 -Nx 300.00 -Ny 150.00 -Nz 0.00 -Ne -1.000000 -Nl MAC -Nw --- -Ma 0 -Md ffffffff -Ms 2 -Mt 806 -P arp -Po REQUEST -Pms 2 -Ps 2 -Pmd 0 -Pd 0 
r -t 1.017929859 -Hs 1 -Hd -2 -Ni 1 -Nx 10.00 -Ny 200.00 -Nz 0.00 -Ne -1.000000 -Nl MAC -Nw --- -Ma 0 -Md ffffffff -Ms 2 -Mt 806 -P arp -Po REQUEST -Pms 2 -Ps 2 -Pmd 0 -Pd 0 
r -t 1.017929859 -Hs 0 -Hd -2 -Ni 0 -Nx 10.00 -Ny 100.00 -Nz 0.00 -Ne -1.000000 -Nl MAC -Nw --- -Ma 0 -Md ffffffff -Ms 2 -Mt 806 -P arp -Po REQUEST -Pms 2 -Ps 2 -Pmd 0 -Pd 0 
s -t 1.018019859 -Hs 1 -Hd -2 -Ni 1 -Nx 10.00 -Ny 200.00 -Nz 0.00 -Ne -1.000000 -Nl MAC -Nw --- -Ma 52e -Md 2 -Ms 1 -Mt 0 
r -t 1.018372546 -Hs 2 -Hd -2 -Ni 2 -Nx 210.00 -Ny 150.00 -Nz 0.00 -Ne -1.000000 -Nl MAC -Nw --- -Ma 52e -Md 2 -Ms 1 -Mt 0 
s -t 1.018382546 -Hs 2 -Hd -2 -Ni 2 -Nx 210.00 -Ny 150.00 -Nz 0.00 -Ne -1.000000 -Nl MAC -Nw --- -Ma 3f4 -Md 1 -Ms 0 -Mt 0 
r -t 1.018687233 -Hs 1 -Hd -2 -Ni 1 -Nx 10.00 -Ny 200.00 -Nz 0.00 -Ne -1.000000 -Nl MAC -Nw --- -Ma 3f4 -Md 1 -Ms 0 -Mt 0 
s -t 1.018697233 -Hs 1 -Hd -2 -Ni 1 -Nx 10.00 -Ny 200.00 -Nz 0.00 -Ne -1.000000 -Nl MAC -Nw --- -Ma 13a -Md 2 -Ms 1 -Mt 806 -P arp -Po REPLY -Pms 1 -Ps 1 -Pmd 2 -Pd 2 
r -t 1.019385920 -Hs 2 -Hd -2 -Ni 2 -Nx 210.00 -Ny 150.00 -Nz 0.00 -Ne -1.000000 -Nl MAC -Nw --- -Ma 13a -Md 2 -Ms 1 -Mt 806 -P arp -Po REPLY -Pms 1 -Ps 1 -Pmd 2 -Pd 2 
s -t 1.019395920 -Hs 2 -Hd -2 -Ni 2 -Nx 210.00 -Ny 150.00 -Nz 0.00 -Ne -1.000000 -Nl MAC -Nw --- -Ma 0 -Md 1 -Ms 0 -Mt 0 
r -t 1.019700607 -Hs 1 -Hd -2 -Ni 1 -Nx 10.00 -Ny 200.00 -Nz 0.00 -Ne -1.000000 -Nl MAC -Nw --- -Ma 0 -Md 1 -Ms 0 -Mt 0 
s -t 1.019970607 -Hs 0 -Hd -2 -Ni 0 -Nx 10.00 -Ny 100.00 -Nz 0.00 -Ne -1.000000 -Nl MAC -Nw --- -Ma 52e -Md 2 -Ms 0 -Mt 0 
s -t 1.020000000 -Hs 1 -Hd -2 -Ni 1 -Nx 10.00 -Ny 200.00 -Nz 0.00 -Ne -1.000000 -Nl AGT -Nw --- -Ma 0 -Md 0 -Ms 0 -Mt 0 -Is 1.0 -Id 3.0 -It cbr -Il 512 -If 1 -Ii 2 -Iv 32 -Pn cbr -Pi 1 -Pf 0 -Po 0 
r -t 1.020000000 -Hs 1 -Hd -2 -Ni 1 -Nx 10.00 -Ny 200.00 -Nz 0.00 -Ne -1.000000 -Nl RTR -Nw --- -Ma 0 -Md 0 -Ms 0 -Mt 0 -Is 1.0 -Id 3.0 -It cbr -Il 512 -If 1 -Ii 2 -Iv 32 -Pn cbr -Pi 1 -Pf 0 -Po 0 
r -t 1.020323295 -Hs 2 -Hd -2 -Ni 2 -Nx 210.00 -Ny 150.00 -Nz 0.00 -Ne -1.000000 -Nl MAC -Nw --- -Ma 52e -Md 2 -Ms 0 -Mt 0 
s -t 1.020333295 -Hs 2 -Hd -2 -Ni 2 -Nx 210.00 -Ny 150.00 -Nz 0.00 -Ne -1.000000 -Nl MAC -Nw --- -Ma 3f4 -Md 0 -Ms 0 -Mt 0 
r -t 1.020637982 -Hs 0 -Hd -2 -Ni 0 -Nx 10.00 -Ny 100.00 -Nz 0.00 -Ne -1.000000 -Nl MAC -Nw --- -Ma 3f4 -Md 0 -Ms 0 -Mt 0 
s -t 1.020647982 -Hs 0 -Hd -2 -Ni 0 -Nx 10.00 -Ny 100.00 -Nz 0.00 -Ne -1.000000 -Nl MAC -Nw --- -Ma 13a -Md 2 -Ms 0 -Mt 806 -P arp -Po REPLY -Pms 0 -Ps 0 -Pmd 2 -Pd 2 
r -t 1.021336669 -Hs 2 -Hd -2 -Ni 2 -Nx 210.00 -Ny 150.00 -Nz 0.00 -Ne -1.000000 -Nl MAC -Nw --- -Ma 13a -Md 2 -Ms 0 -Mt 806 -P arp -Po REPLY -Pms 0 -Ps 0 -Pmd 2 -Pd 2 
s -t 1.021346669 -Hs 2 -Hd -2 -Ni 2 -Nx 210.00 -Ny 150.00 -Nz 0.00 -Ne -1.000000 -Nl MAC -Nw --- -Ma 0 -Md 0 -Ms 0 -Mt 0 
r -t 1.021651356 -Hs 0 -Hd -2 -Ni 0 -Nx 10.00 -Ny 100.00 -Nz 0.00 -Ne -1.000000 -Nl MAC -Nw --- -Ma 0 -Md 0 -Ms 0 -Mt 0 
s -t 1.021920669 -Hs 2 -Hd -2 -Ni 2 -Nx 210.00 -Ny 150.00 -Nz 0.00 -Ne -1.000000 -Nl MAC -Nw --- -Ma 5ae -Md 1 -Ms 2 -Mt 0 
r -t 1.022273356 -Hs 1 -Hd -2 -Ni 1 -Nx 10.00 -Ny 200.00 -Nz 0.00 -Ne -1.000000 -Nl MAC -Nw --- -Ma 5ae -Md 1 -Ms 2 -Mt 0 
s -t 1.022283356 -Hs 1 -Hd -2 -Ni 1 -Nx 10.00 -Ny 200.00 -Nz 0.00 -Ne -1.000000 -Nl MAC -Nw --- -Ma 474 -Md 2 -Ms 0 -Mt 0 
r -t 1.022588043 -Hs 2 -Hd -2 -Ni 2 -Nx 210.00 -Ny 150.00 -Nz 0.00 -Ne -1.000000 -Nl MAC -Nw --- -Ma 474 -Md 2 -Ms 0 -Mt 0 
s -t 1.022598043 -Hs 2 -Hd 1 -Ni 2 -Nx 210.00 -Ny 150.00 -Nz 0.00 -Ne -1.000000 -Nl MAC -Nw --- -Ma 13a -Md 1 -Ms 2 -Mt 800 -Is 3.255 -Id 1.255 -It AODV -Il 102 -If 0 -Ii 0 -Iv 29 -P aodv -Pt 0x4 -Ph 2 -Pd 3 -Pds 4 -Pl 10.000000 -Pc REPLY 
r -t 1.023414731 -Hs 1 -Hd 1 -Ni 1 -Nx 10.00 -Ny 200.00 -Nz 0.00 -Ne -1.000000 -Nl MAC -Nw --- -Ma 13a -Md 1 -Ms 2 -Mt 800 -Is 3.255 -Id 1.255 -It AODV -Il 44 -If 0 -Ii 0 -Iv 29 -P aodv -Pt 0x4 -Ph 2 -Pd 3 -Pds 4 -Pl 10.000000 -Pc REPLY 
s -t 1.023424731 -Hs 1 -Hd -2 -Ni 1 -Nx 10.00 -Ny 200.00 -Nz 0.00 -Ne -1.000000 -Nl MAC -Nw --- -Ma 0 -Md 2 -Ms 0 -Mt 0 
r -t 1.023439731 -Hs 1 -Hd 1 -Ni 1 -Nx 10.00 -Ny 200.00 -Nz 0.00 -Ne -1.000000 -Nl RTR -Nw --- -Ma 13a -Md 1 -Ms 2 -Mt 800 -Is 3.255 -Id 1.255 -It AODV -Il 44 -If 0 -Ii 0 -Iv 29 -P aodv -Pt 0x4 -Ph 2 -Pd 3 -Pds 4 -Pl 10.000000 -Pc REPLY 
s -t 1.023439731 -Hs 1 -Hd 2 -Ni 1 -Nx 10.00 -Ny 200.00 -Nz 0.00 -Ne -1.000000 -Nl RTR -Nw --- -Ma 0 -Md 0 -Ms 0 -Mt 0 -Is 1.0 -Id 3.0 -It cbr -Il 532 -If 1 -Ii 1 -Iv 30 -Pn cbr -Pi 0 -Pf 0 -Po 0 
r -t 1.023729418 -Hs 2 -Hd -2 -Ni 2 -Nx 210.00 -Ny 150.00 -Nz 0.00 -Ne -1.000000 -Nl MAC -Nw --- -Ma 0 -Md 2 -Ms 0 -Mt 0 
s -t 1.024178731 -Hs 1 -Hd -2 -Ni 1 -Nx 10.00 -Ny 200.00 -Nz 0.00 -Ne -1.000000 -Nl MAC -Nw --- -Ma 14ee -Md 2 -Ms 1 -Mt 0 
r -t 1.024531418 -Hs 2 -Hd -2 -Ni 2 -Nx 210.00 -Ny 150.00 -Nz 0.00 -Ne -1.000000 -Nl MAC -Nw --- -Ma 14ee -Md 2 -Ms 1 -Mt 0 
s -t 1.024541418 -Hs 2 -Hd -2 -Ni 2 -Nx 210.00 -Ny 150.00 -Nz 0.00 -Ne -1.000000 -Nl MAC -Nw --- -Ma 13b4 -Md 1 -Ms 0 -Mt 0 
r -t 1.024846105 -Hs 1 -Hd -2 -Ni 1 -Nx 10.00 -Ny 200.00 -Nz 0.00 -Ne -1.000000 -Nl MAC -Nw --- -Ma 13b4 -Md 1 -Ms 0 -Mt 0 
s -t 1.024856105 -Hs 1 -Hd 2 -Ni 1 -Nx 10.00 -Ny 200.00 -Nz 0.00 -Ne -1.000000 -Nl MAC -Nw --- -Ma 13a -Md 2 -Ms 1 -Mt 800 -Is 1.0 -Id 3.0 -It cbr -Il 590 -If 1 -Ii 1 -Iv 30 -Pn cbr -Pi 0 -Pf 0 -Po 0 
r -t 1.029576792 -Hs 2 -Hd 2 -Ni 2 -Nx 210.00 -Ny 150.00 -Nz 0.00 -Ne -1.000000 -Nl MAC -Nw --- -Ma 13a -Md 2 -Ms 1 -Mt 800 -Is 1.0 -Id 3.0 -It cbr -Il 532 -If 1 -Ii 1 -Iv 30 -Pn cbr -Pi 0 -Pf 1 -Po 0 
s -t 1.029586792 -Hs 2 -Hd -2 -Ni 2 -Nx 210.00 -Ny 150.00 -Nz 0.00 -Ne -1.000000 -Nl MAC -Nw --- -Ma 0 -Md 1 -Ms 0 -Mt 0 
r -t 1.029601792 -Hs 2 -Hd 2 -Ni 2 -Nx 210.00 -Ny 150.00 -Nz 0.00 -Ne -1.000000 -Nl RTR -Nw --- -Ma 13a -Md 2 -Ms 1 -Mt 800 -Is 1.0 -Id 3.0 -It cbr -Il 532 -If 1 -Ii 1 -Iv 30 -Pn cbr -Pi 0 -Pf 1 -Po 0 
f -t 1.029601792 -Hs 2 -Hd 3 -Ni 2 -Nx 210.00 -Ny 150.00 -Nz 0.00 -Ne -1.000000 -Nl RTR -Nw --- -Ma 13a -Md 2 -Ms 1 -Mt 800 -Is 1.0 -Id 3.0 -It cbr -Il 532 -If 1 -Ii 1 -Iv 29 -Pn cbr -Pi 0 -Pf 1 -Po 0 
r -t 1.029891479 -Hs 1 -Hd -2 -Ni 1 -Nx 10.00 -Ny 200.00 -Nz 0.00 -Ne -1.000000 -Nl MAC -Nw --- -Ma 0 -Md 1 -Ms 0 -Mt 0 
s -t 1.030100792 -Hs 2 -Hd -2 -Ni 2 -Nx 210.00 -Ny 150.00 -Nz 0.00 -Ne -1.000000 -Nl MAC -Nw --- -Ma 5ae -Md 0 -Ms 2 -Mt 0 
r -t 1.030453479 -Hs 0 -Hd -2 -Ni 0 -Nx 10.00 -Ny 100.00 -Nz 0.00 -Ne -1.000000 -Nl MAC -Nw --- -Ma 5ae -Md 0 -Ms 2 -Mt 0 
s -t 1.030463479 -Hs 0 -Hd -2 -Ni 0 -Nx 10.00 -Ny 100.00 -Nz 0.00 -Ne -1.000000 -Nl MAC -Nw --- -Ma 474 -Md 2 -Ms 0 -Mt 0 
r -t 1.030768167 -Hs 2 -Hd -2 -Ni 2 -Nx 210.00 -Ny 150.00 -Nz 0.00 -Ne -1.000000 -Nl MAC -Nw --- -Ma 474 -Md 2 -Ms 0 -Mt 0 
s -t 1.030778167 -Hs 2 -Hd 0 -Ni 2 -Nx 210.00 -Ny 150.00 -Nz 0.00 -Ne -1.000000 -Nl MAC -Nw --- -Ma 13a -Md 0 -Ms 2 -Mt 800 -Is 3.255 -Id 0.255 -It AODV -Il 102 -If 0 -Ii 0 -Iv 29 -P aodv -Pt 0x4 -Ph 2 -Pd 3 -Pds 6 -Pl 10.000000 -Pc REPLY 
r -t 1.031594854 -Hs 0 -Hd 0 -Ni 0 -Nx 10.00 -Ny 100.00 -Nz 0.00 -Ne -1.000000 -Nl MAC -Nw --- -Ma 13a -Md 0 -Ms 2 -Mt 800 -Is 3.255 -Id 0.255 -It AODV -Il 44 -If 0 -Ii 0 -Iv 29 -P aodv -Pt 0x4 -Ph 2 -Pd 3 -Pds 6 -Pl 10.000000 -Pc REPLY 
s -t 1.031604854 -Hs 0 -Hd -2 -Ni 0 -Nx 10.00 -Ny 100.00 -Nz 0.00 -Ne -1.000000 -Nl MAC -Nw --- -Ma 0 -Md 2 -Ms 0 -Mt 0 
r -t 1.031619854 -Hs 0 -Hd 0 -Ni 0 -Nx 10.00 -Ny 100.00 -Nz 0.00 -Ne -1.000000 -Nl RTR -Nw --- -Ma 13a -Md 0 -Ms 2 -Mt 800 -Is 3.255 -Id 0.255 -It AODV -Il 44 -If 0 -Ii 0 -Iv 29 -P aodv -Pt 0x4 -Ph 2 -Pd 3 -Pds 6 -Pl 10.000000 -Pc REPLY 
s -t 1.031619854 -Hs 0 -Hd 2 -Ni 0 -Nx 10.00 -Ny 100.00 -Nz 0.00 -Ne -1.000000 -Nl RTR -Nw --- -Ma 0 -Md 0 -Ms 0 -Mt 0 -Is 0.0 -Id 3.0 -It cbr -Il 532 -If 0 -Ii 0 -Iv 30 -Pn cbr -Pi 0 -Pf 0 -Po 0 
r -t 1.031909541 -Hs 2 -Hd -2 -Ni 2 -Nx 210.00 -Ny 150.00 -Nz 0.00 -Ne -1.000000 -Nl MAC -Nw --- -Ma 0 -Md 2 -Ms 0 -Mt 0 
s -t 1.031998854 -Hs 0 -Hd -2 -Ni 0 -Nx 10.00 -Ny 100.00 -Nz 0.00 -Ne -1.000000 -Nl MAC -Nw --- -Ma 14ee -Md 2 -Ms 0 -Mt 0 
r -t 1.032351541 -Hs 2 -Hd -2 -Ni 2 -Nx 210.00 -Ny 150.00 -Nz 0.00 -Ne -1.000000 -Nl MAC -Nw --- -Ma 14ee -Md 2 -Ms 0 -Mt 0 
s -t 1.032361541 -Hs 2 -Hd -2 -Ni 2 -Nx 210.00 -Ny 150.00 -Nz 0.00 -Ne -1.000000 -Nl MAC -Nw --- -Ma 13b4 -Md 0 -Ms 0 -Mt 0 
r -t 1.032666228 -Hs 0 -Hd -2 -Ni 0 -Nx 10.00 -Ny 100.00 -Nz 0.00 -Ne -1.000000 -Nl MAC -Nw --- -Ma 13b4 -Md 0 -Ms 0 -Mt 0 
s -t 1.032676228 -Hs 0 -Hd 2 -Ni 0 -Nx 10.00 -Ny 100.00 -Nz 0.00 -Ne -1.000000 -Nl MAC -Nw --- -Ma 13a -Md 2 -Ms 0 -Mt 800 -Is 0.0 -Id 3.0 -It cbr -Il 590 -If 0 -Ii 0 -Iv 30 -Pn cbr -Pi 0 -Pf 0 -Po 0 
s -t 1.033439731 -Hs 1 -Hd 2 -Ni 1 -Nx 10.00 -Ny 200.00 -Nz 0.00 -Ne -1.000000 -Nl RTR -Nw --- -Ma 0 -Md 0 -Ms 0 -Mt 0 -Is 1.0 -Id 3.0 -It cbr -Il 532 -If 1 -Ii 2 -Iv 30 -Pn cbr -Pi 1 -Pf 0 -Po 0 
r -t 1.037396915 -Hs 2 -Hd 2 -Ni 2 -Nx 210.00 -Ny 150.00 -Nz 0.00 -Ne -1.000000 -Nl MAC -Nw --- -Ma 13a -Md 2 -Ms 0 -Mt 800 -Is 0.0 -Id 3.0 -It cbr -Il 532 -If 0 -Ii 0 -Iv 30 -Pn cbr -Pi 0 -Pf 1 -Po 0 
s -t 1.037406915 -Hs 2 -Hd -2 -Ni 2 -Nx 210.00 -Ny 150.00 -Nz 0.00 -Ne -1.000000 -Nl MAC -Nw --- -Ma 0 -Md 0 -Ms 0 -Mt 0 
r -t 1.037421915 -Hs 2 -Hd 2 -Ni 2 -Nx 210.00 -Ny 150.00 -Nz 0.00 -Ne -1.000000 -Nl RTR -Nw --- -Ma 13a -Md 2 -Ms 0 -Mt 800 -Is 0.0 -Id 3.0 -It cbr -Il 532 -If 0 -Ii 0 -Iv 30 -Pn cbr -Pi 0 -Pf 1 -Po 0 
f -t 1.037421915 -Hs 2 -Hd 3 -Ni 2 -Nx 210.00 -Ny 150.00 -Nz 0.00 -Ne -1.000000 -Nl RTR -Nw --- -Ma 13a -Md 2 -Ms 0 -Mt 800 -Is 0.0 -Id 3.0 -It cbr -Il 532 -If 0 -Ii 0 -Iv 29 -Pn cbr -Pi 0 -Pf 1 -Po 0 
r -t 1.037711602 -Hs 0 -Hd -2 -Ni 0 -Nx 10.00 -Ny 100.00 -Nz 0.00 -Ne -1.000000 -Nl MAC -Nw --- -Ma 0 -Md 0 -Ms 0 -Mt 0 
s -t 1.037961602 -Hs 1 -Hd -2 -Ni 1 -Nx 10.00 -Ny 200.00 -Nz 0.00 -Ne -1.000000 -Nl MAC -Nw --- -Ma 14ee -Md 2 -Ms 1 -Mt 0 
r -t 1.038314290 -Hs 2 -Hd -2 -Ni 2 -Nx 210.00 -Ny 150.00 -Nz 0.00 -Ne -1.000000 -Nl MAC -Nw --- -Ma 14ee -Md 2 -Ms 1 -Mt 0 
s -t 1.038324290 -Hs 2 -Hd -2 -Ni 2 -Nx 210.00 -Ny 150.00 -Nz 0.00 -Ne -1.000000 -Nl MAC -Nw --- -Ma 13b4 -Md 1 -Ms 0 -Mt 0 
r -t 1.038628977 -Hs 1 -Hd -2 -Ni 1 -Nx 10.00 -Ny 200.00 -Nz 0.00 -Ne -1.000000 -Nl MAC -Nw --- -Ma 13b4 -Md 1 -Ms 0 -Mt 0 
s -t 1.038638977 -Hs 1 -Hd 2 -Ni 1 -Nx 10.00 -Ny 200.00 -Nz 0.00 -Ne -1.000000 -Nl MAC -Nw --- -Ma 13a -Md 2 -Ms 1 -Mt 800 -Is 1.0 -Id 3.0 -It cbr -Il 590 -If 1 -Ii 2 -Iv 30 -Pn cbr -Pi 1 -Pf 0 -Po 0 
s -t 1.040000000 -Hs 1 -Hd -2 -Ni 1 -Nx 10.00 -Ny 200.00 -Nz 0.00 -Ne -1.000000 -Nl AGT -Nw --- -Ma 0 -Md 0 -Ms 0 -Mt 0 -Is 1.0 -Id 3.0 -It cbr -Il 512 -If 1 -Ii 3 -Iv 32 -Pn cbr -Pi 2 -Pf 0 -Po 0 
r -t 1.040000000 -Hs 1 -Hd -2 -Ni 1 -Nx 10.00 -Ny 200.00 -Nz 0.00 -Ne -1.000000 -Nl RTR -Nw --- -Ma 0 -Md 0 -Ms 0 -Mt 0 -Is 1.0 -Id 3.0 -It cbr -Il 512 -If 1 -Ii 3 -Iv 32 -Pn cbr -Pi 2 -Pf 0 -Po 0 
s -t 1.040000000 -Hs 1 -Hd 2 -Ni 1 -Nx 10.00 -Ny 200.00 -Nz 0.00 -Ne -1.000000 -Nl RTR -Nw --- -Ma 0 -Md 0 -Ms 0 -Mt 0 -Is 1.0 -Id 3.0 -It cbr -Il 532 -If 1 -Ii 3 -Iv 30 -Pn cbr -Pi 2 -Pf 0 -Po 0 
r -t 1.043359664 -Hs 2 -Hd 2 -Ni 2 -Nx 210.00 -Ny 150.00 -Nz 0.00 -Ne -1.000000 -Nl MAC -Nw --- -Ma 13a -Md 2 -Ms 1 -Mt 800 -Is 1.0 -Id 3.0 -It cbr -Il 532 -If 1 -Ii 2 -Iv 30 -Pn cbr -Pi 1 -Pf 1 -Po 0 
s -t 1.043369664 -Hs 2 -Hd -2 -Ni 2 -Nx 210.00 -Ny 150.00 -Nz 0.00 -Ne -1.000000 -Nl MAC -Nw --- -Ma 0 -Md 1 -Ms 0 -Mt 0 
r -t 1.043384664 -Hs 2 -Hd 2 -Ni 2 -Nx 210.00 -Ny 150.00 -Nz 0.00 -Ne -1.000000 -Nl RTR -Nw --- -Ma 13a -Md 2 -Ms 1 -Mt 800 -Is 1.0 -Id 3.0 -It cbr -Il 532 -If 1 -Ii 2 -Iv 30 -Pn cbr -Pi 1 -Pf 1 -Po 0 
f -t 1.043384664 -Hs 2 -Hd 3 -Ni 2 -Nx 210.00 -Ny 150.00 -Nz 0.00 -Ne -1.000000 -Nl RTR -Nw --- -Ma 13a -Md 2 -Ms 1 -Mt 800 -Is 1.0 -Id 3.0 -It cbr -Il 532 -If 1 -Ii 2 -Iv 29 -Pn cbr -Pi 1 -Pf 1 -Po 0 
r -t 1.043674351 -Hs 1 -Hd -2 -Ni 1 -Nx 10.00 -Ny 200.00 -Nz 0.00 -Ne -1.000000 -Nl MAC -Nw --- -Ma 0 -Md 1 -Ms 0 -Mt 0 
s -t 1.043803664 -Hs 2 -Hd -2 -Ni 2 -Nx 210.00 -Ny 150.00 -Nz 0.00 -Ne -1.000000 -Nl MAC -Nw --- -Ma 14ee -Md 3 -Ms 2 -Mt 0 
r -t 1.044155964 -Hs 3 -Hd -2 -Ni 3 -Nx 300.00 -Ny 150.00 -Nz 0.00 -Ne -1.000000 -Nl MAC -Nw --- -Ma 14ee -Md 3 -Ms 2 -Mt 0 
s -t 1.044165964 -Hs 3 -Hd -2 -Ni 3 -Nx 300.00 -Ny 150.00 -Nz 0.00 -Ne -1.000000 -Nl MAC -Nw --- -Ma 13b4 -Md 2 -Ms 0 -Mt 0 
r -t 1.044470264 -Hs 2 -Hd -2 -Ni 2 -Nx 210.00 -Ny 150.00 -Nz 0.00 -Ne -1.000000 -Nl MAC -Nw --- -Ma 13b4 -Md 2 -Ms 0 -Mt 0 
s -t 1.044480264 -Hs 2 -Hd 3 -Ni 2 -Nx 210.00 -Ny 150.00 -Nz 0.00 -Ne -1.000000 -Nl MAC -Nw --- -Ma 13a -Md 3 -Ms 2 -Mt 800 -Is 1.0 -Id 3.0 -It cbr -Il 590 -If 1 -Ii 1 -Iv 29 -Pn cbr -Pi 0 -Pf 1 -Po 0 
r -t 1.049200564 -Hs 3 -Hd 3 -Ni 3 -Nx 300.00 -Ny 150.00 -Nz 0.00 -Ne -1.000000 -Nl MAC -Nw --- -Ma 13a -Md 3 -Ms 2 -Mt 800 -Is 1.0 -Id 3.0 -It cbr -Il 532 -If 1 -Ii 1 -Iv 29 -Pn cbr -Pi 0 -Pf 2 -Po 0 
s -t 1.049210564 -Hs 3 -Hd -2 -Ni 3 -Nx 300.00 -Ny 150.00 -Nz 0.00 -Ne -1.000000 -Nl MAC -Nw --- -Ma 0 -Md 2 -Ms 0 -Mt 0 